
Predictions were generated on 06-May-2020 at 13:30:43 using OpenFAST, compiled as a 64-bit application using single precision at commit v2.1.0-291-gc03308fa-dirty
 linked with  NWTC Subroutine Library; ElastoDyn; HydroDyn; SubDyn

Description from the FAST input file: FAST Certification Test #21: NREL 5.0 MW Baseline Offshore Turbine with OC4 Jacket Configuration

Time      	TwrBsFxt  	TwrBsFyt  	TwrBsFzt  	TwrBsMxt  	TwrBsMyt  	TwrBsMzt  	PtfmSurge 	PtfmSway  	PtfmHeave 	PtfmRoll  	PtfmPitch 	PtfmYaw   	Wave1Elev 	HydroFxi  	HydroFyi  	HydroFzi  	HydroMxi  	HydroMyi  	HydroMzi  	IntfFXss  	IntfFYss  	IntfFZss  	IntfMXss  	IntfMYss  	IntfMZss  	IntfTDXss 	IntfTDYss 	IntfTDZss 	IntfRDXss 	IntfRDYss 	IntfRDZss 	IntfTAXss 	IntfTAYss 	IntfTAZss 	IntfRAXss 	IntfRAYss 	IntfRAZss 	M1N1FKZe  	M2N1FKZe  	M3N1TDXss 	M3N1TDYss 	M3N1TDZss 	M4N1TDXss 	M4N1TDYss 	M4N1TDZss 	M5N2TDXss 	M5N2TDYss 	M5N2TDZss 	M6N2TDXss 	M6N2TDYss 	M6N2TDZss 	M5N1FKXe  	M5N1FKYe  	M5N1FKZe  	M6N1FKXe  	M6N1FKYe  	M6N1FKZe  	M7N1FKZe  	M8N1FKZe  	-ReactFXss	-ReactFYss	-ReactMXss	-ReactMYss	-ReactMZss	-ReactFZss	M1J1FKxe  	M1J1FKye  	M1J1FKze  	M1J1MKxe  	M1J1MKye  	M1J1MKze  	M1J1FMxe  	M1J1FMye  	M1J1FMze  	M1J1MMxe  	M1J1MMye  	M1J1MMze  	M1J2FKxe  	M1J2FKye  	M1J2FKze  	M1J2MKxe  	M1J2MKye  	M1J2MKze  	M1J2FMxe  	M1J2FMye  	M1J2FMze  	M1J2MMxe  	M1J2MMye  	M1J2MMze  	M2J1FKxe  	M2J1FKye  	M2J1FKze  	M2J1MKxe  	M2J1MKye  	M2J1MKze  	M2J1FMxe  	M2J1FMye  	M2J1FMze  	M2J1MMxe  	M2J1MMye  	M2J1MMze  	M2J2FKxe  	M2J2FKye  	M2J2FKze  	M2J2MKxe  	M2J2MKye  	M2J2MKze  	M2J2FMxe  	M2J2FMye  	M2J2FMze  	M2J2MMxe  	M2J2MMye  	M2J2MMze  	M3J1FKxe  	M3J1FKye  	M3J1FKze  	M3J1MKxe  	M3J1MKye  	M3J1MKze  	M3J1FMxe  	M3J1FMye  	M3J1FMze  	M3J1MMxe  	M3J1MMye  	M3J1MMze  	M3J2FKxe  	M3J2FKye  	M3J2FKze  	M3J2MKxe  	M3J2MKye  	M3J2MKze  	M3J2FMxe  	M3J2FMye  	M3J2FMze  	M3J2MMxe  	M3J2MMye  	M3J2MMze  	M4J1FKxe  	M4J1FKye  	M4J1FKze  	M4J1MKxe  	M4J1MKye  	M4J1MKze  	M4J1FMxe  	M4J1FMye  	M4J1FMze  	M4J1MMxe  	M4J1MMye  	M4J1MMze  	M4J2FKxe  	M4J2FKye  	M4J2FKze  	M4J2MKxe  	M4J2MKye  	M4J2MKze  	M4J2FMxe  	M4J2FMye  	M4J2FMze  	M4J2MMxe  	M4J2MMye  	M4J2MMze  	M5J1FKxe  	M5J1FKye  	M5J1FKze  	M5J1MKxe  	M5J1MKye  	M5J1MKze  	M5J1FMxe  	M5J1FMye  	M5J1FMze  	M5J1MMxe  	M5J1MMye  	M5J1MMze  	M5J2FKxe  	M5J2FKye  	M5J2FKze  	M5J2MKxe  	M5J2MKye  	M5J2MKze  	M5J2FMxe  	M5J2FMye  	M5J2FMze  	M5J2MMxe  	M5J2MMye  	M5J2MMze  	M6J1FKxe  	M6J1FKye  	M6J1FKze  	M6J1MKxe  	M6J1MKye  	M6J1MKze  	M6J1FMxe  	M6J1FMye  	M6J1FMze  	M6J1MMxe  	M6J1MMye  	M6J1MMze  	M6J2FKxe  	M6J2FKye  	M6J2FKze  	M6J2MKxe  	M6J2MKye  	M6J2MKze  	M6J2FMxe  	M6J2FMye  	M6J2FMze  	M6J2MMxe  	M6J2MMye  	M6J2MMze  	M7J1FKxe  	M7J1FKye  	M7J1FKze  	M7J1MKxe  	M7J1MKye  	M7J1MKze  	M7J1FMxe  	M7J1FMye  	M7J1FMze  	M7J1MMxe  	M7J1MMye  	M7J1MMze  	M7J2FKxe  	M7J2FKye  	M7J2FKze  	M7J2MKxe  	M7J2MKye  	M7J2MKze  	M7J2FMxe  	M7J2FMye  	M7J2FMze  	M7J2MMxe  	M7J2MMye  	M7J2MMze  	M8J1FKxe  	M8J1FKye  	M8J1FKze  	M8J1MKxe  	M8J1MKye  	M8J1MKze  	M8J1FMxe  	M8J1FMye  	M8J1FMze  	M8J1MMxe  	M8J1MMye  	M8J1MMze  	M8J2FKxe  	M8J2FKye  	M8J2FKze  	M8J2MKxe  	M8J2MKye  	M8J2MKze  	M8J2FMxe  	M8J2FMye  	M8J2FMze  	M8J2MMxe  	M8J2MMye  	M8J2MMze  	M9J1FKxe  	M9J1FKye  	M9J1FKze  	M9J1MKxe  	M9J1MKye  	M9J1MKze  	M9J1FMxe  	M9J1FMye  	M9J1FMze  	M9J1MMxe  	M9J1MMye  	M9J1MMze  	M9J2FKxe  	M9J2FKye  	M9J2FKze  	M9J2MKxe  	M9J2MKye  	M9J2MKze  	M9J2FMxe  	M9J2FMye  	M9J2FMze  	M9J2MMxe  	M9J2MMye  	M9J2MMze  	M10J1FKxe 	M10J1FKye 	M10J1FKze 	M10J1MKxe 	M10J1MKye 	M10J1MKze 	M10J1FMxe 	M10J1FMye 	M10J1FMze 	M10J1MMxe 	M10J1MMye 	M10J1MMze 	M10J2FKxe 	M10J2FKye 	M10J2FKze 	M10J2MKxe 	M10J2MKye 	M10J2MKze 	M10J2FMxe 	M10J2FMye 	M10J2FMze 	M10J2MMxe 	M10J2MMye 	M10J2MMze 	M11J1FKxe 	M11J1FKye 	M11J1FKze 	M11J1MKxe 	M11J1MKye 	M11J1MKze 	M11J1FMxe 	M11J1FMye 	M11J1FMze 	M11J1MMxe 	M11J1MMye 	M11J1MMze 	M11J2FKxe 	M11J2FKye 	M11J2FKze 	M11J2MKxe 	M11J2MKye 	M11J2MKze 	M11J2FMxe 	M11J2FMye 	M11J2FMze 	M11J2MMxe 	M11J2MMye 	M11J2MMze 	M12J1FKxe 	M12J1FKye 	M12J1FKze 	M12J1MKxe 	M12J1MKye 	M12J1MKze 	M12J1FMxe 	M12J1FMye 	M12J1FMze 	M12J1MMxe 	M12J1MMye 	M12J1MMze 	M12J2FKxe 	M12J2FKye 	M12J2FKze 	M12J2MKxe 	M12J2MKye 	M12J2MKze 	M12J2FMxe 	M12J2FMye 	M12J2FMze 	M12J2MMxe 	M12J2MMye 	M12J2MMze 	M13J1FKxe 	M13J1FKye 	M13J1FKze 	M13J1MKxe 	M13J1MKye 	M13J1MKze 	M13J1FMxe 	M13J1FMye 	M13J1FMze 	M13J1MMxe 	M13J1MMye 	M13J1MMze 	M13J2FKxe 	M13J2FKye 	M13J2FKze 	M13J2MKxe 	M13J2MKye 	M13J2MKze 	M13J2FMxe 	M13J2FMye 	M13J2FMze 	M13J2MMxe 	M13J2MMye 	M13J2MMze 	M14J1FKxe 	M14J1FKye 	M14J1FKze 	M14J1MKxe 	M14J1MKye 	M14J1MKze 	M14J1FMxe 	M14J1FMye 	M14J1FMze 	M14J1MMxe 	M14J1MMye 	M14J1MMze 	M14J2FKxe 	M14J2FKye 	M14J2FKze 	M14J2MKxe 	M14J2MKye 	M14J2MKze 	M14J2FMxe 	M14J2FMye 	M14J2FMze 	M14J2MMxe 	M14J2MMye 	M14J2MMze 	M15J1FKxe 	M15J1FKye 	M15J1FKze 	M15J1MKxe 	M15J1MKye 	M15J1MKze 	M15J1FMxe 	M15J1FMye 	M15J1FMze 	M15J1MMxe 	M15J1MMye 	M15J1MMze 	M15J2FKxe 	M15J2FKye 	M15J2FKze 	M15J2MKxe 	M15J2MKye 	M15J2MKze 	M15J2FMxe 	M15J2FMye 	M15J2FMze 	M15J2MMxe 	M15J2MMye 	M15J2MMze 	M16J1FKxe 	M16J1FKye 	M16J1FKze 	M16J1MKxe 	M16J1MKye 	M16J1MKze 	M16J1FMxe 	M16J1FMye 	M16J1FMze 	M16J1MMxe 	M16J1MMye 	M16J1MMze 	M16J2FKxe 	M16J2FKye 	M16J2FKze 	M16J2MKxe 	M16J2MKye 	M16J2MKze 	M16J2FMxe 	M16J2FMye 	M16J2FMze 	M16J2MMxe 	M16J2MMye 	M16J2MMze 	M17J1FKxe 	M17J1FKye 	M17J1FKze 	M17J1MKxe 	M17J1MKye 	M17J1MKze 	M17J1FMxe 	M17J1FMye 	M17J1FMze 	M17J1MMxe 	M17J1MMye 	M17J1MMze 	M17J2FKxe 	M17J2FKye 	M17J2FKze 	M17J2MKxe 	M17J2MKye 	M17J2MKze 	M17J2FMxe 	M17J2FMye 	M17J2FMze 	M17J2MMxe 	M17J2MMye 	M17J2MMze 	M18J1FKxe 	M18J1FKye 	M18J1FKze 	M18J1MKxe 	M18J1MKye 	M18J1MKze 	M18J1FMxe 	M18J1FMye 	M18J1FMze 	M18J1MMxe 	M18J1MMye 	M18J1MMze 	M18J2FKxe 	M18J2FKye 	M18J2FKze 	M18J2MKxe 	M18J2MKye 	M18J2MKze 	M18J2FMxe 	M18J2FMye 	M18J2FMze 	M18J2MMxe 	M18J2MMye 	M18J2MMze 	M19J1FKxe 	M19J1FKye 	M19J1FKze 	M19J1MKxe 	M19J1MKye 	M19J1MKze 	M19J1FMxe 	M19J1FMye 	M19J1FMze 	M19J1MMxe 	M19J1MMye 	M19J1MMze 	M19J2FKxe 	M19J2FKye 	M19J2FKze 	M19J2MKxe 	M19J2MKye 	M19J2MKze 	M19J2FMxe 	M19J2FMye 	M19J2FMze 	M19J2MMxe 	M19J2MMye 	M19J2MMze 	M20J1FKxe 	M20J1FKye 	M20J1FKze 	M20J1MKxe 	M20J1MKye 	M20J1MKze 	M20J1FMxe 	M20J1FMye 	M20J1FMze 	M20J1MMxe 	M20J1MMye 	M20J1MMze 	M20J2FKxe 	M20J2FKye 	M20J2FKze 	M20J2MKxe 	M20J2MKye 	M20J2MKze 	M20J2FMxe 	M20J2FMye 	M20J2FMze 	M20J2MMxe 	M20J2MMye 	M20J2MMze 	M21J1FKxe 	M21J1FKye 	M21J1FKze 	M21J1MKxe 	M21J1MKye 	M21J1MKze 	M21J1FMxe 	M21J1FMye 	M21J1FMze 	M21J1MMxe 	M21J1MMye 	M21J1MMze 	M21J2FKxe 	M21J2FKye 	M21J2FKze 	M21J2MKxe 	M21J2MKye 	M21J2MKze 	M21J2FMxe 	M21J2FMye 	M21J2FMze 	M21J2MMxe 	M21J2MMye 	M21J2MMze 	M22J1FKxe 	M22J1FKye 	M22J1FKze 	M22J1MKxe 	M22J1MKye 	M22J1MKze 	M22J1FMxe 	M22J1FMye 	M22J1FMze 	M22J1MMxe 	M22J1MMye 	M22J1MMze 	M22J2FKxe 	M22J2FKye 	M22J2FKze 	M22J2MKxe 	M22J2MKye 	M22J2MKze 	M22J2FMxe 	M22J2FMye 	M22J2FMze 	M22J2MMxe 	M22J2MMye 	M22J2MMze 	M23J1FKxe 	M23J1FKye 	M23J1FKze 	M23J1MKxe 	M23J1MKye 	M23J1MKze 	M23J1FMxe 	M23J1FMye 	M23J1FMze 	M23J1MMxe 	M23J1MMye 	M23J1MMze 	M23J2FKxe 	M23J2FKye 	M23J2FKze 	M23J2MKxe 	M23J2MKye 	M23J2MKze 	M23J2FMxe 	M23J2FMye 	M23J2FMze 	M23J2MMxe 	M23J2MMye 	M23J2MMze 	M24J1FKxe 	M24J1FKye 	M24J1FKze 	M24J1MKxe 	M24J1MKye 	M24J1MKze 	M24J1FMxe 	M24J1FMye 	M24J1FMze 	M24J1MMxe 	M24J1MMye 	M24J1MMze 	M24J2FKxe 	M24J2FKye 	M24J2FKze 	M24J2MKxe 	M24J2MKye 	M24J2MKze 	M24J2FMxe 	M24J2FMye 	M24J2FMze 	M24J2MMxe 	M24J2MMye 	M24J2MMze 	M25J1FKxe 	M25J1FKye 	M25J1FKze 	M25J1MKxe 	M25J1MKye 	M25J1MKze 	M25J1FMxe 	M25J1FMye 	M25J1FMze 	M25J1MMxe 	M25J1MMye 	M25J1MMze 	M25J2FKxe 	M25J2FKye 	M25J2FKze 	M25J2MKxe 	M25J2MKye 	M25J2MKze 	M25J2FMxe 	M25J2FMye 	M25J2FMze 	M25J2MMxe 	M25J2MMye 	M25J2MMze 	M26J1FKxe 	M26J1FKye 	M26J1FKze 	M26J1MKxe 	M26J1MKye 	M26J1MKze 	M26J1FMxe 	M26J1FMye 	M26J1FMze 	M26J1MMxe 	M26J1MMye 	M26J1MMze 	M26J2FKxe 	M26J2FKye 	M26J2FKze 	M26J2MKxe 	M26J2MKye 	M26J2MKze 	M26J2FMxe 	M26J2FMye 	M26J2FMze 	M26J2MMxe 	M26J2MMye 	M26J2MMze 	M27J1FKxe 	M27J1FKye 	M27J1FKze 	M27J1MKxe 	M27J1MKye 	M27J1MKze 	M27J1FMxe 	M27J1FMye 	M27J1FMze 	M27J1MMxe 	M27J1MMye 	M27J1MMze 	M27J2FKxe 	M27J2FKye 	M27J2FKze 	M27J2MKxe 	M27J2MKye 	M27J2MKze 	M27J2FMxe 	M27J2FMye 	M27J2FMze 	M27J2MMxe 	M27J2MMye 	M27J2MMze 	M28J1FKxe 	M28J1FKye 	M28J1FKze 	M28J1MKxe 	M28J1MKye 	M28J1MKze 	M28J1FMxe 	M28J1FMye 	M28J1FMze 	M28J1MMxe 	M28J1MMye 	M28J1MMze 	M28J2FKxe 	M28J2FKye 	M28J2FKze 	M28J2MKxe 	M28J2MKye 	M28J2MKze 	M28J2FMxe 	M28J2FMye 	M28J2FMze 	M28J2MMxe 	M28J2MMye 	M28J2MMze 	M29J1FKxe 	M29J1FKye 	M29J1FKze 	M29J1MKxe 	M29J1MKye 	M29J1MKze 	M29J1FMxe 	M29J1FMye 	M29J1FMze 	M29J1MMxe 	M29J1MMye 	M29J1MMze 	M29J2FKxe 	M29J2FKye 	M29J2FKze 	M29J2MKxe 	M29J2MKye 	M29J2MKze 	M29J2FMxe 	M29J2FMye 	M29J2FMze 	M29J2MMxe 	M29J2MMye 	M29J2MMze 	M30J1FKxe 	M30J1FKye 	M30J1FKze 	M30J1MKxe 	M30J1MKye 	M30J1MKze 	M30J1FMxe 	M30J1FMye 	M30J1FMze 	M30J1MMxe 	M30J1MMye 	M30J1MMze 	M30J2FKxe 	M30J2FKye 	M30J2FKze 	M30J2MKxe 	M30J2MKye 	M30J2MKze 	M30J2FMxe 	M30J2FMye 	M30J2FMze 	M30J2MMxe 	M30J2MMye 	M30J2MMze 	M31J1FKxe 	M31J1FKye 	M31J1FKze 	M31J1MKxe 	M31J1MKye 	M31J1MKze 	M31J1FMxe 	M31J1FMye 	M31J1FMze 	M31J1MMxe 	M31J1MMye 	M31J1MMze 	M31J2FKxe 	M31J2FKye 	M31J2FKze 	M31J2MKxe 	M31J2MKye 	M31J2MKze 	M31J2FMxe 	M31J2FMye 	M31J2FMze 	M31J2MMxe 	M31J2MMye 	M31J2MMze 	M32J1FKxe 	M32J1FKye 	M32J1FKze 	M32J1MKxe 	M32J1MKye 	M32J1MKze 	M32J1FMxe 	M32J1FMye 	M32J1FMze 	M32J1MMxe 	M32J1MMye 	M32J1MMze 	M32J2FKxe 	M32J2FKye 	M32J2FKze 	M32J2MKxe 	M32J2MKye 	M32J2MKze 	M32J2FMxe 	M32J2FMye 	M32J2FMze 	M32J2MMxe 	M32J2MMye 	M32J2MMze 	M33J1FKxe 	M33J1FKye 	M33J1FKze 	M33J1MKxe 	M33J1MKye 	M33J1MKze 	M33J1FMxe 	M33J1FMye 	M33J1FMze 	M33J1MMxe 	M33J1MMye 	M33J1MMze 	M33J2FKxe 	M33J2FKye 	M33J2FKze 	M33J2MKxe 	M33J2MKye 	M33J2MKze 	M33J2FMxe 	M33J2FMye 	M33J2FMze 	M33J2MMxe 	M33J2MMye 	M33J2MMze 	M34J1FKxe 	M34J1FKye 	M34J1FKze 	M34J1MKxe 	M34J1MKye 	M34J1MKze 	M34J1FMxe 	M34J1FMye 	M34J1FMze 	M34J1MMxe 	M34J1MMye 	M34J1MMze 	M34J2FKxe 	M34J2FKye 	M34J2FKze 	M34J2MKxe 	M34J2MKye 	M34J2MKze 	M34J2FMxe 	M34J2FMye 	M34J2FMze 	M34J2MMxe 	M34J2MMye 	M34J2MMze 	M35J1FKxe 	M35J1FKye 	M35J1FKze 	M35J1MKxe 	M35J1MKye 	M35J1MKze 	M35J1FMxe 	M35J1FMye 	M35J1FMze 	M35J1MMxe 	M35J1MMye 	M35J1MMze 	M35J2FKxe 	M35J2FKye 	M35J2FKze 	M35J2MKxe 	M35J2MKye 	M35J2MKze 	M35J2FMxe 	M35J2FMye 	M35J2FMze 	M35J2MMxe 	M35J2MMye 	M35J2MMze 	M36J1FKxe 	M36J1FKye 	M36J1FKze 	M36J1MKxe 	M36J1MKye 	M36J1MKze 	M36J1FMxe 	M36J1FMye 	M36J1FMze 	M36J1MMxe 	M36J1MMye 	M36J1MMze 	M36J2FKxe 	M36J2FKye 	M36J2FKze 	M36J2MKxe 	M36J2MKye 	M36J2MKze 	M36J2FMxe 	M36J2FMye 	M36J2FMze 	M36J2MMxe 	M36J2MMye 	M36J2MMze 	M37J1FKxe 	M37J1FKye 	M37J1FKze 	M37J1MKxe 	M37J1MKye 	M37J1MKze 	M37J1FMxe 	M37J1FMye 	M37J1FMze 	M37J1MMxe 	M37J1MMye 	M37J1MMze 	M37J2FKxe 	M37J2FKye 	M37J2FKze 	M37J2MKxe 	M37J2MKye 	M37J2MKze 	M37J2FMxe 	M37J2FMye 	M37J2FMze 	M37J2MMxe 	M37J2MMye 	M37J2MMze 	M38J1FKxe 	M38J1FKye 	M38J1FKze 	M38J1MKxe 	M38J1MKye 	M38J1MKze 	M38J1FMxe 	M38J1FMye 	M38J1FMze 	M38J1MMxe 	M38J1MMye 	M38J1MMze 	M38J2FKxe 	M38J2FKye 	M38J2FKze 	M38J2MKxe 	M38J2MKye 	M38J2MKze 	M38J2FMxe 	M38J2FMye 	M38J2FMze 	M38J2MMxe 	M38J2MMye 	M38J2MMze 	M39J1FKxe 	M39J1FKye 	M39J1FKze 	M39J1MKxe 	M39J1MKye 	M39J1MKze 	M39J1FMxe 	M39J1FMye 	M39J1FMze 	M39J1MMxe 	M39J1MMye 	M39J1MMze 	M39J2FKxe 	M39J2FKye 	M39J2FKze 	M39J2MKxe 	M39J2MKye 	M39J2MKze 	M39J2FMxe 	M39J2FMye 	M39J2FMze 	M39J2MMxe 	M39J2MMye 	M39J2MMze 	M40J1FKxe 	M40J1FKye 	M40J1FKze 	M40J1MKxe 	M40J1MKye 	M40J1MKze 	M40J1FMxe 	M40J1FMye 	M40J1FMze 	M40J1MMxe 	M40J1MMye 	M40J1MMze 	M40J2FKxe 	M40J2FKye 	M40J2FKze 	M40J2MKxe 	M40J2MKye 	M40J2MKze 	M40J2FMxe 	M40J2FMye 	M40J2FMze 	M40J2MMxe 	M40J2MMye 	M40J2MMze 	M41J1FKxe 	M41J1FKye 	M41J1FKze 	M41J1MKxe 	M41J1MKye 	M41J1MKze 	M41J1FMxe 	M41J1FMye 	M41J1FMze 	M41J1MMxe 	M41J1MMye 	M41J1MMze 	M41J2FKxe 	M41J2FKye 	M41J2FKze 	M41J2MKxe 	M41J2MKye 	M41J2MKze 	M41J2FMxe 	M41J2FMye 	M41J2FMze 	M41J2MMxe 	M41J2MMye 	M41J2MMze 	M42J1FKxe 	M42J1FKye 	M42J1FKze 	M42J1MKxe 	M42J1MKye 	M42J1MKze 	M42J1FMxe 	M42J1FMye 	M42J1FMze 	M42J1MMxe 	M42J1MMye 	M42J1MMze 	M42J2FKxe 	M42J2FKye 	M42J2FKze 	M42J2MKxe 	M42J2MKye 	M42J2MKze 	M42J2FMxe 	M42J2FMye 	M42J2FMze 	M42J2MMxe 	M42J2MMye 	M42J2MMze 	M43J1FKxe 	M43J1FKye 	M43J1FKze 	M43J1MKxe 	M43J1MKye 	M43J1MKze 	M43J1FMxe 	M43J1FMye 	M43J1FMze 	M43J1MMxe 	M43J1MMye 	M43J1MMze 	M43J2FKxe 	M43J2FKye 	M43J2FKze 	M43J2MKxe 	M43J2MKye 	M43J2MKze 	M43J2FMxe 	M43J2FMye 	M43J2FMze 	M43J2MMxe 	M43J2MMye 	M43J2MMze 	M44J1FKxe 	M44J1FKye 	M44J1FKze 	M44J1MKxe 	M44J1MKye 	M44J1MKze 	M44J1FMxe 	M44J1FMye 	M44J1FMze 	M44J1MMxe 	M44J1MMye 	M44J1MMze 	M44J2FKxe 	M44J2FKye 	M44J2FKze 	M44J2MKxe 	M44J2MKye 	M44J2MKze 	M44J2FMxe 	M44J2FMye 	M44J2FMze 	M44J2MMxe 	M44J2MMye 	M44J2MMze 	M45J1FKxe 	M45J1FKye 	M45J1FKze 	M45J1MKxe 	M45J1MKye 	M45J1MKze 	M45J1FMxe 	M45J1FMye 	M45J1FMze 	M45J1MMxe 	M45J1MMye 	M45J1MMze 	M45J2FKxe 	M45J2FKye 	M45J2FKze 	M45J2MKxe 	M45J2MKye 	M45J2MKze 	M45J2FMxe 	M45J2FMye 	M45J2FMze 	M45J2MMxe 	M45J2MMye 	M45J2MMze 	M46J1FKxe 	M46J1FKye 	M46J1FKze 	M46J1MKxe 	M46J1MKye 	M46J1MKze 	M46J1FMxe 	M46J1FMye 	M46J1FMze 	M46J1MMxe 	M46J1MMye 	M46J1MMze 	M46J2FKxe 	M46J2FKye 	M46J2FKze 	M46J2MKxe 	M46J2MKye 	M46J2MKze 	M46J2FMxe 	M46J2FMye 	M46J2FMze 	M46J2MMxe 	M46J2MMye 	M46J2MMze 	M47J1FKxe 	M47J1FKye 	M47J1FKze 	M47J1MKxe 	M47J1MKye 	M47J1MKze 	M47J1FMxe 	M47J1FMye 	M47J1FMze 	M47J1MMxe 	M47J1MMye 	M47J1MMze 	M47J2FKxe 	M47J2FKye 	M47J2FKze 	M47J2MKxe 	M47J2MKye 	M47J2MKze 	M47J2FMxe 	M47J2FMye 	M47J2FMze 	M47J2MMxe 	M47J2MMye 	M47J2MMze 	M48J1FKxe 	M48J1FKye 	M48J1FKze 	M48J1MKxe 	M48J1MKye 	M48J1MKze 	M48J1FMxe 	M48J1FMye 	M48J1FMze 	M48J1MMxe 	M48J1MMye 	M48J1MMze 	M48J2FKxe 	M48J2FKye 	M48J2FKze 	M48J2MKxe 	M48J2MKye 	M48J2MKze 	M48J2FMxe 	M48J2FMye 	M48J2FMze 	M48J2MMxe 	M48J2MMye 	M48J2MMze 	M49J1FKxe 	M49J1FKye 	M49J1FKze 	M49J1MKxe 	M49J1MKye 	M49J1MKze 	M49J1FMxe 	M49J1FMye 	M49J1FMze 	M49J1MMxe 	M49J1MMye 	M49J1MMze 	M49J2FKxe 	M49J2FKye 	M49J2FKze 	M49J2MKxe 	M49J2MKye 	M49J2MKze 	M49J2FMxe 	M49J2FMye 	M49J2FMze 	M49J2MMxe 	M49J2MMye 	M49J2MMze 	M50J1FKxe 	M50J1FKye 	M50J1FKze 	M50J1MKxe 	M50J1MKye 	M50J1MKze 	M50J1FMxe 	M50J1FMye 	M50J1FMze 	M50J1MMxe 	M50J1MMye 	M50J1MMze 	M50J2FKxe 	M50J2FKye 	M50J2FKze 	M50J2MKxe 	M50J2MKye 	M50J2MKze 	M50J2FMxe 	M50J2FMye 	M50J2FMze 	M50J2MMxe 	M50J2MMye 	M50J2MMze 	M51J1FKxe 	M51J1FKye 	M51J1FKze 	M51J1MKxe 	M51J1MKye 	M51J1MKze 	M51J1FMxe 	M51J1FMye 	M51J1FMze 	M51J1MMxe 	M51J1MMye 	M51J1MMze 	M51J2FKxe 	M51J2FKye 	M51J2FKze 	M51J2MKxe 	M51J2MKye 	M51J2MKze 	M51J2FMxe 	M51J2FMye 	M51J2FMze 	M51J2MMxe 	M51J2MMye 	M51J2MMze 	M52J1FKxe 	M52J1FKye 	M52J1FKze 	M52J1MKxe 	M52J1MKye 	M52J1MKze 	M52J1FMxe 	M52J1FMye 	M52J1FMze 	M52J1MMxe 	M52J1MMye 	M52J1MMze 	M52J2FKxe 	M52J2FKye 	M52J2FKze 	M52J2MKxe 	M52J2MKye 	M52J2MKze 	M52J2FMxe 	M52J2FMye 	M52J2FMze 	M52J2MMxe 	M52J2MMye 	M52J2MMze 	M53J1FKxe 	M53J1FKye 	M53J1FKze 	M53J1MKxe 	M53J1MKye 	M53J1MKze 	M53J1FMxe 	M53J1FMye 	M53J1FMze 	M53J1MMxe 	M53J1MMye 	M53J1MMze 	M53J2FKxe 	M53J2FKye 	M53J2FKze 	M53J2MKxe 	M53J2MKye 	M53J2MKze 	M53J2FMxe 	M53J2FMye 	M53J2FMze 	M53J2MMxe 	M53J2MMye 	M53J2MMze 	M54J1FKxe 	M54J1FKye 	M54J1FKze 	M54J1MKxe 	M54J1MKye 	M54J1MKze 	M54J1FMxe 	M54J1FMye 	M54J1FMze 	M54J1MMxe 	M54J1MMye 	M54J1MMze 	M54J2FKxe 	M54J2FKye 	M54J2FKze 	M54J2MKxe 	M54J2MKye 	M54J2MKze 	M54J2FMxe 	M54J2FMye 	M54J2FMze 	M54J2MMxe 	M54J2MMye 	M54J2MMze 	M55J1FKxe 	M55J1FKye 	M55J1FKze 	M55J1MKxe 	M55J1MKye 	M55J1MKze 	M55J1FMxe 	M55J1FMye 	M55J1FMze 	M55J1MMxe 	M55J1MMye 	M55J1MMze 	M55J2FKxe 	M55J2FKye 	M55J2FKze 	M55J2MKxe 	M55J2MKye 	M55J2MKze 	M55J2FMxe 	M55J2FMye 	M55J2FMze 	M55J2MMxe 	M55J2MMye 	M55J2MMze 	M56J1FKxe 	M56J1FKye 	M56J1FKze 	M56J1MKxe 	M56J1MKye 	M56J1MKze 	M56J1FMxe 	M56J1FMye 	M56J1FMze 	M56J1MMxe 	M56J1MMye 	M56J1MMze 	M56J2FKxe 	M56J2FKye 	M56J2FKze 	M56J2MKxe 	M56J2MKye 	M56J2MKze 	M56J2FMxe 	M56J2FMye 	M56J2FMze 	M56J2MMxe 	M56J2MMye 	M56J2MMze 	M57J1FKxe 	M57J1FKye 	M57J1FKze 	M57J1MKxe 	M57J1MKye 	M57J1MKze 	M57J1FMxe 	M57J1FMye 	M57J1FMze 	M57J1MMxe 	M57J1MMye 	M57J1MMze 	M57J2FKxe 	M57J2FKye 	M57J2FKze 	M57J2MKxe 	M57J2MKye 	M57J2MKze 	M57J2FMxe 	M57J2FMye 	M57J2FMze 	M57J2MMxe 	M57J2MMye 	M57J2MMze 	M58J1FKxe 	M58J1FKye 	M58J1FKze 	M58J1MKxe 	M58J1MKye 	M58J1MKze 	M58J1FMxe 	M58J1FMye 	M58J1FMze 	M58J1MMxe 	M58J1MMye 	M58J1MMze 	M58J2FKxe 	M58J2FKye 	M58J2FKze 	M58J2MKxe 	M58J2MKye 	M58J2MKze 	M58J2FMxe 	M58J2FMye 	M58J2FMze 	M58J2MMxe 	M58J2MMye 	M58J2MMze 	M59J1FKxe 	M59J1FKye 	M59J1FKze 	M59J1MKxe 	M59J1MKye 	M59J1MKze 	M59J1FMxe 	M59J1FMye 	M59J1FMze 	M59J1MMxe 	M59J1MMye 	M59J1MMze 	M59J2FKxe 	M59J2FKye 	M59J2FKze 	M59J2MKxe 	M59J2MKye 	M59J2MKze 	M59J2FMxe 	M59J2FMye 	M59J2FMze 	M59J2MMxe 	M59J2MMye 	M59J2MMze 	M60J1FKxe 	M60J1FKye 	M60J1FKze 	M60J1MKxe 	M60J1MKye 	M60J1MKze 	M60J1FMxe 	M60J1FMye 	M60J1FMze 	M60J1MMxe 	M60J1MMye 	M60J1MMze 	M60J2FKxe 	M60J2FKye 	M60J2FKze 	M60J2MKxe 	M60J2MKye 	M60J2MKze 	M60J2FMxe 	M60J2FMye 	M60J2FMze 	M60J2MMxe 	M60J2MMye 	M60J2MMze 	M61J1FKxe 	M61J1FKye 	M61J1FKze 	M61J1MKxe 	M61J1MKye 	M61J1MKze 	M61J1FMxe 	M61J1FMye 	M61J1FMze 	M61J1MMxe 	M61J1MMye 	M61J1MMze 	M61J2FKxe 	M61J2FKye 	M61J2FKze 	M61J2MKxe 	M61J2MKye 	M61J2MKze 	M61J2FMxe 	M61J2FMye 	M61J2FMze 	M61J2MMxe 	M61J2MMye 	M61J2MMze 	M62J1FKxe 	M62J1FKye 	M62J1FKze 	M62J1MKxe 	M62J1MKye 	M62J1MKze 	M62J1FMxe 	M62J1FMye 	M62J1FMze 	M62J1MMxe 	M62J1MMye 	M62J1MMze 	M62J2FKxe 	M62J2FKye 	M62J2FKze 	M62J2MKxe 	M62J2MKye 	M62J2MKze 	M62J2FMxe 	M62J2FMye 	M62J2FMze 	M62J2MMxe 	M62J2MMye 	M62J2MMze 	M63J1FKxe 	M63J1FKye 	M63J1FKze 	M63J1MKxe 	M63J1MKye 	M63J1MKze 	M63J1FMxe 	M63J1FMye 	M63J1FMze 	M63J1MMxe 	M63J1MMye 	M63J1MMze 	M63J2FKxe 	M63J2FKye 	M63J2FKze 	M63J2MKxe 	M63J2MKye 	M63J2MKze 	M63J2FMxe 	M63J2FMye 	M63J2FMze 	M63J2MMxe 	M63J2MMye 	M63J2MMze 	M64J1FKxe 	M64J1FKye 	M64J1FKze 	M64J1MKxe 	M64J1MKye 	M64J1MKze 	M64J1FMxe 	M64J1FMye 	M64J1FMze 	M64J1MMxe 	M64J1MMye 	M64J1MMze 	M64J2FKxe 	M64J2FKye 	M64J2FKze 	M64J2MKxe 	M64J2MKye 	M64J2MKze 	M64J2FMxe 	M64J2FMye 	M64J2FMze 	M64J2MMxe 	M64J2MMye 	M64J2MMze 	M65J1FKxe 	M65J1FKye 	M65J1FKze 	M65J1MKxe 	M65J1MKye 	M65J1MKze 	M65J1FMxe 	M65J1FMye 	M65J1FMze 	M65J1MMxe 	M65J1MMye 	M65J1MMze 	M65J2FKxe 	M65J2FKye 	M65J2FKze 	M65J2MKxe 	M65J2MKye 	M65J2MKze 	M65J2FMxe 	M65J2FMye 	M65J2FMze 	M65J2MMxe 	M65J2MMye 	M65J2MMze 	M66J1FKxe 	M66J1FKye 	M66J1FKze 	M66J1MKxe 	M66J1MKye 	M66J1MKze 	M66J1FMxe 	M66J1FMye 	M66J1FMze 	M66J1MMxe 	M66J1MMye 	M66J1MMze 	M66J2FKxe 	M66J2FKye 	M66J2FKze 	M66J2MKxe 	M66J2MKye 	M66J2MKze 	M66J2FMxe 	M66J2FMye 	M66J2FMze 	M66J2MMxe 	M66J2MMye 	M66J2MMze 	M67J1FKxe 	M67J1FKye 	M67J1FKze 	M67J1MKxe 	M67J1MKye 	M67J1MKze 	M67J1FMxe 	M67J1FMye 	M67J1FMze 	M67J1MMxe 	M67J1MMye 	M67J1MMze 	M67J2FKxe 	M67J2FKye 	M67J2FKze 	M67J2MKxe 	M67J2MKye 	M67J2MKze 	M67J2FMxe 	M67J2FMye 	M67J2FMze 	M67J2MMxe 	M67J2MMye 	M67J2MMze 	M68J1FKxe 	M68J1FKye 	M68J1FKze 	M68J1MKxe 	M68J1MKye 	M68J1MKze 	M68J1FMxe 	M68J1FMye 	M68J1FMze 	M68J1MMxe 	M68J1MMye 	M68J1MMze 	M68J2FKxe 	M68J2FKye 	M68J2FKze 	M68J2MKxe 	M68J2MKye 	M68J2MKze 	M68J2FMxe 	M68J2FMye 	M68J2FMze 	M68J2MMxe 	M68J2MMye 	M68J2MMze 	M69J1FKxe 	M69J1FKye 	M69J1FKze 	M69J1MKxe 	M69J1MKye 	M69J1MKze 	M69J1FMxe 	M69J1FMye 	M69J1FMze 	M69J1MMxe 	M69J1MMye 	M69J1MMze 	M69J2FKxe 	M69J2FKye 	M69J2FKze 	M69J2MKxe 	M69J2MKye 	M69J2MKze 	M69J2FMxe 	M69J2FMye 	M69J2FMze 	M69J2MMxe 	M69J2MMye 	M69J2MMze 	M70J1FKxe 	M70J1FKye 	M70J1FKze 	M70J1MKxe 	M70J1MKye 	M70J1MKze 	M70J1FMxe 	M70J1FMye 	M70J1FMze 	M70J1MMxe 	M70J1MMye 	M70J1MMze 	M70J2FKxe 	M70J2FKye 	M70J2FKze 	M70J2MKxe 	M70J2MKye 	M70J2MKze 	M70J2FMxe 	M70J2FMye 	M70J2FMze 	M70J2MMxe 	M70J2MMye 	M70J2MMze 	M71J1FKxe 	M71J1FKye 	M71J1FKze 	M71J1MKxe 	M71J1MKye 	M71J1MKze 	M71J1FMxe 	M71J1FMye 	M71J1FMze 	M71J1MMxe 	M71J1MMye 	M71J1MMze 	M71J2FKxe 	M71J2FKye 	M71J2FKze 	M71J2MKxe 	M71J2MKye 	M71J2MKze 	M71J2FMxe 	M71J2FMye 	M71J2FMze 	M71J2MMxe 	M71J2MMye 	M71J2MMze 	M72J1FKxe 	M72J1FKye 	M72J1FKze 	M72J1MKxe 	M72J1MKye 	M72J1MKze 	M72J1FMxe 	M72J1FMye 	M72J1FMze 	M72J1MMxe 	M72J1MMye 	M72J1MMze 	M72J2FKxe 	M72J2FKye 	M72J2FKze 	M72J2MKxe 	M72J2MKye 	M72J2MKze 	M72J2FMxe 	M72J2FMye 	M72J2FMze 	M72J2MMxe 	M72J2MMye 	M72J2MMze 	M73J1FKxe 	M73J1FKye 	M73J1FKze 	M73J1MKxe 	M73J1MKye 	M73J1MKze 	M73J1FMxe 	M73J1FMye 	M73J1FMze 	M73J1MMxe 	M73J1MMye 	M73J1MMze 	M73J2FKxe 	M73J2FKye 	M73J2FKze 	M73J2MKxe 	M73J2MKye 	M73J2MKze 	M73J2FMxe 	M73J2FMye 	M73J2FMze 	M73J2MMxe 	M73J2MMye 	M73J2MMze 	M74J1FKxe 	M74J1FKye 	M74J1FKze 	M74J1MKxe 	M74J1MKye 	M74J1MKze 	M74J1FMxe 	M74J1FMye 	M74J1FMze 	M74J1MMxe 	M74J1MMye 	M74J1MMze 	M74J2FKxe 	M74J2FKye 	M74J2FKze 	M74J2MKxe 	M74J2MKye 	M74J2MKze 	M74J2FMxe 	M74J2FMye 	M74J2FMze 	M74J2MMxe 	M74J2MMye 	M74J2MMze 	M75J1FKxe 	M75J1FKye 	M75J1FKze 	M75J1MKxe 	M75J1MKye 	M75J1MKze 	M75J1FMxe 	M75J1FMye 	M75J1FMze 	M75J1MMxe 	M75J1MMye 	M75J1MMze 	M75J2FKxe 	M75J2FKye 	M75J2FKze 	M75J2MKxe 	M75J2MKye 	M75J2MKze 	M75J2FMxe 	M75J2FMye 	M75J2FMze 	M75J2MMxe 	M75J2MMye 	M75J2MMze 	M76J1FKxe 	M76J1FKye 	M76J1FKze 	M76J1MKxe 	M76J1MKye 	M76J1MKze 	M76J1FMxe 	M76J1FMye 	M76J1FMze 	M76J1MMxe 	M76J1MMye 	M76J1MMze 	M76J2FKxe 	M76J2FKye 	M76J2FKze 	M76J2MKxe 	M76J2MKye 	M76J2MKze 	M76J2FMxe 	M76J2FMye 	M76J2FMze 	M76J2MMxe 	M76J2MMye 	M76J2MMze 	M77J1FKxe 	M77J1FKye 	M77J1FKze 	M77J1MKxe 	M77J1MKye 	M77J1MKze 	M77J1FMxe 	M77J1FMye 	M77J1FMze 	M77J1MMxe 	M77J1MMye 	M77J1MMze 	M77J2FKxe 	M77J2FKye 	M77J2FKze 	M77J2MKxe 	M77J2MKye 	M77J2MKze 	M77J2FMxe 	M77J2FMye 	M77J2FMze 	M77J2MMxe 	M77J2MMye 	M77J2MMze 	M78J1FKxe 	M78J1FKye 	M78J1FKze 	M78J1MKxe 	M78J1MKye 	M78J1MKze 	M78J1FMxe 	M78J1FMye 	M78J1FMze 	M78J1MMxe 	M78J1MMye 	M78J1MMze 	M78J2FKxe 	M78J2FKye 	M78J2FKze 	M78J2MKxe 	M78J2MKye 	M78J2MKze 	M78J2FMxe 	M78J2FMye 	M78J2FMze 	M78J2MMxe 	M78J2MMye 	M78J2MMze 	M79J1FKxe 	M79J1FKye 	M79J1FKze 	M79J1MKxe 	M79J1MKye 	M79J1MKze 	M79J1FMxe 	M79J1FMye 	M79J1FMze 	M79J1MMxe 	M79J1MMye 	M79J1MMze 	M79J2FKxe 	M79J2FKye 	M79J2FKze 	M79J2MKxe 	M79J2MKye 	M79J2MKze 	M79J2FMxe 	M79J2FMye 	M79J2FMze 	M79J2MMxe 	M79J2MMye 	M79J2MMze 	M80J1FKxe 	M80J1FKye 	M80J1FKze 	M80J1MKxe 	M80J1MKye 	M80J1MKze 	M80J1FMxe 	M80J1FMye 	M80J1FMze 	M80J1MMxe 	M80J1MMye 	M80J1MMze 	M80J2FKxe 	M80J2FKye 	M80J2FKze 	M80J2MKxe 	M80J2MKye 	M80J2MKze 	M80J2FMxe 	M80J2FMye 	M80J2FMze 	M80J2MMxe 	M80J2MMye 	M80J2MMze 	M81J1FKxe 	M81J1FKye 	M81J1FKze 	M81J1MKxe 	M81J1MKye 	M81J1MKze 	M81J1FMxe 	M81J1FMye 	M81J1FMze 	M81J1MMxe 	M81J1MMye 	M81J1MMze 	M81J2FKxe 	M81J2FKye 	M81J2FKze 	M81J2MKxe 	M81J2MKye 	M81J2MKze 	M81J2FMxe 	M81J2FMye 	M81J2FMze 	M81J2MMxe 	M81J2MMye 	M81J2MMze 	M82J1FKxe 	M82J1FKye 	M82J1FKze 	M82J1MKxe 	M82J1MKye 	M82J1MKze 	M82J1FMxe 	M82J1FMye 	M82J1FMze 	M82J1MMxe 	M82J1MMye 	M82J1MMze 	M82J2FKxe 	M82J2FKye 	M82J2FKze 	M82J2MKxe 	M82J2MKye 	M82J2MKze 	M82J2FMxe 	M82J2FMye 	M82J2FMze 	M82J2MMxe 	M82J2MMye 	M82J2MMze 	M83J1FKxe 	M83J1FKye 	M83J1FKze 	M83J1MKxe 	M83J1MKye 	M83J1MKze 	M83J1FMxe 	M83J1FMye 	M83J1FMze 	M83J1MMxe 	M83J1MMye 	M83J1MMze 	M83J2FKxe 	M83J2FKye 	M83J2FKze 	M83J2MKxe 	M83J2MKye 	M83J2MKze 	M83J2FMxe 	M83J2FMye 	M83J2FMze 	M83J2MMxe 	M83J2MMye 	M83J2MMze 	M84J1FKxe 	M84J1FKye 	M84J1FKze 	M84J1MKxe 	M84J1MKye 	M84J1MKze 	M84J1FMxe 	M84J1FMye 	M84J1FMze 	M84J1MMxe 	M84J1MMye 	M84J1MMze 	M84J2FKxe 	M84J2FKye 	M84J2FKze 	M84J2MKxe 	M84J2MKye 	M84J2MKze 	M84J2FMxe 	M84J2FMye 	M84J2FMze 	M84J2MMxe 	M84J2MMye 	M84J2MMze 	M85J1FKxe 	M85J1FKye 	M85J1FKze 	M85J1MKxe 	M85J1MKye 	M85J1MKze 	M85J1FMxe 	M85J1FMye 	M85J1FMze 	M85J1MMxe 	M85J1MMye 	M85J1MMze 	M85J2FKxe 	M85J2FKye 	M85J2FKze 	M85J2MKxe 	M85J2MKye 	M85J2MKze 	M85J2FMxe 	M85J2FMye 	M85J2FMze 	M85J2MMxe 	M85J2MMye 	M85J2MMze 	M86J1FKxe 	M86J1FKye 	M86J1FKze 	M86J1MKxe 	M86J1MKye 	M86J1MKze 	M86J1FMxe 	M86J1FMye 	M86J1FMze 	M86J1MMxe 	M86J1MMye 	M86J1MMze 	M86J2FKxe 	M86J2FKye 	M86J2FKze 	M86J2MKxe 	M86J2MKye 	M86J2MKze 	M86J2FMxe 	M86J2FMye 	M86J2FMze 	M86J2MMxe 	M86J2MMye 	M86J2MMze 	M87J1FKxe 	M87J1FKye 	M87J1FKze 	M87J1MKxe 	M87J1MKye 	M87J1MKze 	M87J1FMxe 	M87J1FMye 	M87J1FMze 	M87J1MMxe 	M87J1MMye 	M87J1MMze 	M87J2FKxe 	M87J2FKye 	M87J2FKze 	M87J2MKxe 	M87J2MKye 	M87J2MKze 	M87J2FMxe 	M87J2FMye 	M87J2FMze 	M87J2MMxe 	M87J2MMye 	M87J2MMze 	M88J1FKxe 	M88J1FKye 	M88J1FKze 	M88J1MKxe 	M88J1MKye 	M88J1MKze 	M88J1FMxe 	M88J1FMye 	M88J1FMze 	M88J1MMxe 	M88J1MMye 	M88J1MMze 	M88J2FKxe 	M88J2FKye 	M88J2FKze 	M88J2MKxe 	M88J2MKye 	M88J2MKze 	M88J2FMxe 	M88J2FMye 	M88J2FMze 	M88J2MMxe 	M88J2MMye 	M88J2MMze 	M89J1FKxe 	M89J1FKye 	M89J1FKze 	M89J1MKxe 	M89J1MKye 	M89J1MKze 	M89J1FMxe 	M89J1FMye 	M89J1FMze 	M89J1MMxe 	M89J1MMye 	M89J1MMze 	M89J2FKxe 	M89J2FKye 	M89J2FKze 	M89J2MKxe 	M89J2MKye 	M89J2MKze 	M89J2FMxe 	M89J2FMye 	M89J2FMze 	M89J2MMxe 	M89J2MMye 	M89J2MMze 	M90J1FKxe 	M90J1FKye 	M90J1FKze 	M90J1MKxe 	M90J1MKye 	M90J1MKze 	M90J1FMxe 	M90J1FMye 	M90J1FMze 	M90J1MMxe 	M90J1MMye 	M90J1MMze 	M90J2FKxe 	M90J2FKye 	M90J2FKze 	M90J2MKxe 	M90J2MKye 	M90J2MKze 	M90J2FMxe 	M90J2FMye 	M90J2FMze 	M90J2MMxe 	M90J2MMye 	M90J2MMze 	M91J1FKxe 	M91J1FKye 	M91J1FKze 	M91J1MKxe 	M91J1MKye 	M91J1MKze 	M91J1FMxe 	M91J1FMye 	M91J1FMze 	M91J1MMxe 	M91J1MMye 	M91J1MMze 	M91J2FKxe 	M91J2FKye 	M91J2FKze 	M91J2MKxe 	M91J2MKye 	M91J2MKze 	M91J2FMxe 	M91J2FMye 	M91J2FMze 	M91J2MMxe 	M91J2MMye 	M91J2MMze 	M92J1FKxe 	M92J1FKye 	M92J1FKze 	M92J1MKxe 	M92J1MKye 	M92J1MKze 	M92J1FMxe 	M92J1FMye 	M92J1FMze 	M92J1MMxe 	M92J1MMye 	M92J1MMze 	M92J2FKxe 	M92J2FKye 	M92J2FKze 	M92J2MKxe 	M92J2MKye 	M92J2MKze 	M92J2FMxe 	M92J2FMye 	M92J2FMze 	M92J2MMxe 	M92J2MMye 	M92J2MMze 	M93J1FKxe 	M93J1FKye 	M93J1FKze 	M93J1MKxe 	M93J1MKye 	M93J1MKze 	M93J1FMxe 	M93J1FMye 	M93J1FMze 	M93J1MMxe 	M93J1MMye 	M93J1MMze 	M93J2FKxe 	M93J2FKye 	M93J2FKze 	M93J2MKxe 	M93J2MKye 	M93J2MKze 	M93J2FMxe 	M93J2FMye 	M93J2FMze 	M93J2MMxe 	M93J2MMye 	M93J2MMze 	M94J1FKxe 	M94J1FKye 	M94J1FKze 	M94J1MKxe 	M94J1MKye 	M94J1MKze 	M94J1FMxe 	M94J1FMye 	M94J1FMze 	M94J1MMxe 	M94J1MMye 	M94J1MMze 	M94J2FKxe 	M94J2FKye 	M94J2FKze 	M94J2MKxe 	M94J2MKye 	M94J2MKze 	M94J2FMxe 	M94J2FMye 	M94J2FMze 	M94J2MMxe 	M94J2MMye 	M94J2MMze 	M95J1FKxe 	M95J1FKye 	M95J1FKze 	M95J1MKxe 	M95J1MKye 	M95J1MKze 	M95J1FMxe 	M95J1FMye 	M95J1FMze 	M95J1MMxe 	M95J1MMye 	M95J1MMze 	M95J2FKxe 	M95J2FKye 	M95J2FKze 	M95J2MKxe 	M95J2MKye 	M95J2MKze 	M95J2FMxe 	M95J2FMye 	M95J2FMze 	M95J2MMxe 	M95J2MMye 	M95J2MMze 	M96J1FKxe 	M96J1FKye 	M96J1FKze 	M96J1MKxe 	M96J1MKye 	M96J1MKze 	M96J1FMxe 	M96J1FMye 	M96J1FMze 	M96J1MMxe 	M96J1MMye 	M96J1MMze 	M96J2FKxe 	M96J2FKye 	M96J2FKze 	M96J2MKxe 	M96J2MKye 	M96J2MKze 	M96J2FMxe 	M96J2FMye 	M96J2FMze 	M96J2MMxe 	M96J2MMye 	M96J2MMze 	M97J1FKxe 	M97J1FKye 	M97J1FKze 	M97J1MKxe 	M97J1MKye 	M97J1MKze 	M97J1FMxe 	M97J1FMye 	M97J1FMze 	M97J1MMxe 	M97J1MMye 	M97J1MMze 	M97J2FKxe 	M97J2FKye 	M97J2FKze 	M97J2MKxe 	M97J2MKye 	M97J2MKze 	M97J2FMxe 	M97J2FMye 	M97J2FMze 	M97J2MMxe 	M97J2MMye 	M97J2MMze 	M98J1FKxe 	M98J1FKye 	M98J1FKze 	M98J1MKxe 	M98J1MKye 	M98J1MKze 	M98J1FMxe 	M98J1FMye 	M98J1FMze 	M98J1MMxe 	M98J1MMye 	M98J1MMze 	M98J2FKxe 	M98J2FKye 	M98J2FKze 	M98J2MKxe 	M98J2MKye 	M98J2MKze 	M98J2FMxe 	M98J2FMye 	M98J2FMze 	M98J2MMxe 	M98J2MMye 	M98J2MMze 	M99J1FKxe 	M99J1FKye 	M99J1FKze 	M99J1MKxe 	M99J1MKye 	M99J1MKze 	M99J1FMxe 	M99J1FMye 	M99J1FMze 	M99J1MMxe 	M99J1MMye 	M99J1MMze 	M99J2FKxe 	M99J2FKye 	M99J2FKze 	M99J2MKxe 	M99J2MKye 	M99J2MKze 	M99J2FMxe 	M99J2FMye 	M99J2FMze 	M99J2MMxe 	M99J2MMye 	M99J2MMze 	M100J1FKxe	M100J1FKye	M100J1FKze	M100J1MKxe	M100J1MKye	M100J1MKze	M100J1FMxe	M100J1FMye	M100J1FMze	M100J1MMxe	M100J1MMye	M100J1MMze	M100J2FKxe	M100J2FKye	M100J2FKze	M100J2MKxe	M100J2MKye	M100J2MKze	M100J2FMxe	M100J2FMye	M100J2FMze	M100J2MMxe	M100J2MMye	M100J2MMze	M101J1FKxe	M101J1FKye	M101J1FKze	M101J1MKxe	M101J1MKye	M101J1MKze	M101J1FMxe	M101J1FMye	M101J1FMze	M101J1MMxe	M101J1MMye	M101J1MMze	M101J2FKxe	M101J2FKye	M101J2FKze	M101J2MKxe	M101J2MKye	M101J2MKze	M101J2FMxe	M101J2FMye	M101J2FMze	M101J2MMxe	M101J2MMye	M101J2MMze	M102J1FKxe	M102J1FKye	M102J1FKze	M102J1MKxe	M102J1MKye	M102J1MKze	M102J1FMxe	M102J1FMye	M102J1FMze	M102J1MMxe	M102J1MMye	M102J1MMze	M102J2FKxe	M102J2FKye	M102J2FKze	M102J2MKxe	M102J2MKye	M102J2MKze	M102J2FMxe	M102J2FMye	M102J2FMze	M102J2MMxe	M102J2MMye	M102J2MMze	M103J1FKxe	M103J1FKye	M103J1FKze	M103J1MKxe	M103J1MKye	M103J1MKze	M103J1FMxe	M103J1FMye	M103J1FMze	M103J1MMxe	M103J1MMye	M103J1MMze	M103J2FKxe	M103J2FKye	M103J2FKze	M103J2MKxe	M103J2MKye	M103J2MKze	M103J2FMxe	M103J2FMye	M103J2FMze	M103J2MMxe	M103J2MMye	M103J2MMze	M104J1FKxe	M104J1FKye	M104J1FKze	M104J1MKxe	M104J1MKye	M104J1MKze	M104J1FMxe	M104J1FMye	M104J1FMze	M104J1MMxe	M104J1MMye	M104J1MMze	M104J2FKxe	M104J2FKye	M104J2FKze	M104J2MKxe	M104J2MKye	M104J2MKze	M104J2FMxe	M104J2FMye	M104J2FMze	M104J2MMxe	M104J2MMye	M104J2MMze	M105J1FKxe	M105J1FKye	M105J1FKze	M105J1MKxe	M105J1MKye	M105J1MKze	M105J1FMxe	M105J1FMye	M105J1FMze	M105J1MMxe	M105J1MMye	M105J1MMze	M105J2FKxe	M105J2FKye	M105J2FKze	M105J2MKxe	M105J2MKye	M105J2MKze	M105J2FMxe	M105J2FMye	M105J2FMze	M105J2MMxe	M105J2MMye	M105J2MMze	M106J1FKxe	M106J1FKye	M106J1FKze	M106J1MKxe	M106J1MKye	M106J1MKze	M106J1FMxe	M106J1FMye	M106J1FMze	M106J1MMxe	M106J1MMye	M106J1MMze	M106J2FKxe	M106J2FKye	M106J2FKze	M106J2MKxe	M106J2MKye	M106J2MKze	M106J2FMxe	M106J2FMye	M106J2FMze	M106J2MMxe	M106J2MMye	M106J2MMze	M107J1FKxe	M107J1FKye	M107J1FKze	M107J1MKxe	M107J1MKye	M107J1MKze	M107J1FMxe	M107J1FMye	M107J1FMze	M107J1MMxe	M107J1MMye	M107J1MMze	M107J2FKxe	M107J2FKye	M107J2FKze	M107J2MKxe	M107J2MKye	M107J2MKze	M107J2FMxe	M107J2FMye	M107J2FMze	M107J2MMxe	M107J2MMye	M107J2MMze	M108J1FKxe	M108J1FKye	M108J1FKze	M108J1MKxe	M108J1MKye	M108J1MKze	M108J1FMxe	M108J1FMye	M108J1FMze	M108J1MMxe	M108J1MMye	M108J1MMze	M108J2FKxe	M108J2FKye	M108J2FKze	M108J2MKxe	M108J2MKye	M108J2MKze	M108J2FMxe	M108J2FMye	M108J2FMze	M108J2MMxe	M108J2MMye	M108J2MMze	M109J1FKxe	M109J1FKye	M109J1FKze	M109J1MKxe	M109J1MKye	M109J1MKze	M109J1FMxe	M109J1FMye	M109J1FMze	M109J1MMxe	M109J1MMye	M109J1MMze	M109J2FKxe	M109J2FKye	M109J2FKze	M109J2MKxe	M109J2MKye	M109J2MKze	M109J2FMxe	M109J2FMye	M109J2FMze	M109J2MMxe	M109J2MMye	M109J2MMze	M110J1FKxe	M110J1FKye	M110J1FKze	M110J1MKxe	M110J1MKye	M110J1MKze	M110J1FMxe	M110J1FMye	M110J1FMze	M110J1MMxe	M110J1MMye	M110J1MMz