
Predictions were generated on 04-Jan-2021 at 12:04:18 using OpenFAST, compiled as a 64-bit application using single precision at commit v2.3.0-1158-g4b886d48
 linked with  NWTC Subroutine Library; ElastoDyn; SubDyn

Description from the FAST input file: MonopileOnly

Time	TwrBsFxt	TwrBsFyt	TwrBsFzt	TwrBsMxt	TwrBsMyt	TwrBsMzt	PtfmSurge	PtfmSway	PtfmHeave	PtfmRoll	PtfmPitch	PtfmYaw	IntfFYss	IntfMXss	IntfMYss	IntfMZss	IntfTDXss	IntfTDYss	IntfTDZss	IntfRDXss	IntfRDYss	IntfRDZss	IntfTAXss	IntfTAYss	IntfTAZss	IntfRAXss	IntfRAYss	IntfRAZss	M2N1MKxe	M2N1MKye	M1N1MKxe	M1N1MKye	-ReactFXss	-ReactFYss	-ReactFZss	-ReactMXss	-ReactMYss	-ReactMZss
(s)	(kN)	(kN)	(kN)	(kN-m)	(kN-m)	(kN-m)	(m)	(m)	(m)	(deg)	(deg)	(deg)	(N)	(Nm)	(Nm)	(Nm)	(m)	(m)	(m)	(rad)	(rad)	(rad)	(m/s^2)	(m/s^2)	(m/s^2)	(rad/s^2)	(rad/s^2)	(rad/s^2)	(N*m)	(N*m)	(N*m)	(N*m)	(N)	(N)	(N)	(Nm)	(Nm)	(Nm)
    0.0000	-2.857E-07	-0.000E+00	 3.428E-08	 0.000E+00	-1.788E-07	 0.000E+00	 1.000E+00	 0.000E+00	 0.000E+00	 0.000E+00	 7.887E-01	 0.000E+00	-0.000E+00	-0.000E+00	 6.238E+01	-0.000E+00	 1.000E+00	 0.000E+00	 0.000E+00	 0.000E+00	 1.377E-02	 0.000E+00	 2.259E+01	 0.000E+00	-1.471E+01	 0.000E+00	 8.732E+00	 0.000E+00	-0.000E+00	 5.732E+07	-0.000E+00	 2.570E+08	 6.651E+06	-0.000E+00	-3.447E+06	-0.000E+00	-7.525E+07	-0.000E+00
    0.0100	 5.636E-07	-0.000E+00	 1.696E-09	 0.000E+00	 3.298E-07	 0.000E+00	 1.001E+00	 0.000E+00	-7.047E-04	 0.000E+00	 8.096E-01	 0.000E+00	-0.000E+00	-0.000E+00	 2.741E+02	-0.000E+00	 1.001E+00	 0.000E+00	-7.047E-04	 0.000E+00	 1.413E-02	 0.000E+00	-5.287E+01	 0.000E+00	-8.793E+00	 0.000E+00	-2.955E+00	 0.000E+00	-0.000E+00	 7.731E+07	-0.000E+00	 2.511E+08	 7.222E+06	-0.000E+00	-5.111E+06	-0.000E+00	-1.238E+08	-0.000E+00
    0.0200	 9.941E-07	-0.000E+00	-1.174E-07	 0.000E+00	 5.729E-07	 0.000E+00	 9.962E-01	 0.000E+00	-2.247E-03	 0.000E+00	 8.150E-01	 0.000E+00	-0.000E+00	-0.000E+00	 2.677E+02	-0.000E+00	 9.962E-01	 0.000E+00	-2.247E-03	 0.000E+00	 1.422E-02	 0.000E+00	-9.093E+01	 0.000E+00	 4.156E+00	 0.000E+00	-8.959E+00	 0.000E+00	-0.000E+00	 8.649E+07	-0.000E+00	 2.427E+08	 7.787E+06	-0.000E+00	-8.754E+06	-0.000E+00	-1.718E+08	-0.000E+00
    0.0300	 2.392E-09	-0.000E+00	-2.468E-07	 0.000E+00	-4.428E-08	 0.000E+00	 9.832E-01	 0.000E+00	-3.360E-03	 0.000E+00	 7.737E-01	 0.000E+00	-0.000E+00	-0.000E+00	 7.702E+03	-0.000E+00	 9.832E-01	 0.000E+00	-3.360E-03	 0.000E+00	 1.350E-02	 0.000E+00	-2.349E+00	 0.000E+00	 1.351E+01	 0.000E+00	 4.246E+00	 0.000E+00	-0.000E+00	 5.707E+07	-0.000E+00	 2.369E+08	 7.709E+06	-0.000E+00	-1.138E+07	-0.000E+00	-1.652E+08	-0.000E+00
    0.0400	-4.150E-09	-0.000E+00	-2.305E-07	 0.000E+00	-4.476E-08	 0.000E+00	 9.699E-01	 0.000E+00	-3.177E-03	 0.000E+00	 7.557E-01	 0.000E+00	-0.000E+00	-0.000E+00	 1.401E+03	-0.000E+00	 9.699E-01	 0.000E+00	-3.177E-03	 0.000E+00	 1.319E-02	 0.000E+00	-1.519E+00	 0.000E+00	 1.197E+01	 0.000E+00	 3.856E+00	 0.000E+00	-0.000E+00	 5.081E+07	-0.000E+00	 2.240E+08	 8.280E+06	-0.000E+00	-1.095E+07	-0.000E+00	-2.144E+08	-0.000E+00
    0.0500	 7.085E-07	-0.000E+00	-9.351E-08	 0.000E+00	 4.068E-07	 0.000E+00	 9.560E-01	 0.000E+00	-1.874E-03	 0.000E+00	 7.567E-01	 0.000E+00	-0.000E+00	-0.000E+00	-1.375E+04	-0.000E+00	 9.560E-01	 0.000E+00	-1.874E-03	 0.000E+00	 1.321E-02	 0.000E+00	-6.483E+01	 0.000E+00	 1.028E+00	 0.000E+00	-6.345E+00	 0.000E+00	-0.000E+00	 6.335E+07	-0.000E+00	 2.059E+08	 9.337E+06	-0.000E+00	-7.874E+06	-0.000E+00	-3.058E+08	-0.000E+00
    0.0600	 2.937E-07	-0.000E+00	 1.199E-08	 0.000E+00	 1.726E-07	 0.000E+00	 9.359E-01	 0.000E+00	-5.080E-04	 0.000E+00	 7.235E-01	 0.000E+00	-0.000E+00	-0.000E+00	-2.399E+04	-0.000E+00	 9.359E-01	 0.000E+00	-5.080E-04	 0.000E+00	 1.263E-02	 0.000E+00	-2.778E+01	 0.000E+00	-1.044E+01	 0.000E+00	-1.169E+00	 0.000E+00	-0.000E+00	 4.725E+07	-0.000E+00	 1.921E+08	 9.750E+06	-0.000E+00	-4.646E+06	-0.000E+00	-3.435E+08	-0.000E+00
    0.0700	-2.215E-07	-0.000E+00	 2.671E-08	 0.000E+00	-1.353E-07	 0.000E+00	 9.133E-01	 0.000E+00	-1.563E-04	 0.000E+00	 6.852E-01	 0.000E+00	-0.000E+00	-0.000E+00	-1.353E+04	-0.000E+00	 9.133E-01	 0.000E+00	-1.563E-04	 0.000E+00	 1.196E-02	 0.000E+00	 1.833E+01	 0.000E+00	-1.339E+01	 0.000E+00	 5.361E+00	 0.000E+00	-0.000E+00	 2.793E+07	-0.000E+00	 1.793E+08	 9.997E+06	-0.000E+00	-3.816E+06	-0.000E+00	-3.689E+08	-0.000E+00
    0.0800	 2.334E-07	-0.000E+00	-3.765E-08	 0.000E+00	 1.310E-07	 0.000E+00	 8.921E-01	 0.000E+00	-1.070E-03	 0.000E+00	 6.751E-01	 0.000E+00	-0.000E+00	-0.000E+00	 1.790E+04	-0.000E+00	 8.921E-01	 0.000E+00	-1.070E-03	 0.000E+00	 1.178E-02	 0.000E+00	-2.184E+01	 0.000E+00	-5.721E+00	 0.000E+00	-1.240E+00	 0.000E+00	-0.000E+00	 3.434E+07	-0.000E+00	 1.638E+08	 1.065E+07	-0.000E+00	-5.975E+06	-0.000E+00	-4.306E+08	-0.000E+00
    0.0900	 3.764E-07	-0.000E+00	-1.568E-07	 0.000E+00	 2.007E-07	 0.000E+00	 8.688E-01	 0.000E+00	-2.499E-03	 0.000E+00	 6.576E-01	 0.000E+00	-0.000E+00	-0.000E+00	 4.675E+04	-0.000E+00	 8.688E-01	 0.000E+00	-2.499E-03	 0.000E+00	 1.148E-02	 0.000E+00	-3.429E+01	 0.000E+00	 6.275E+00	 0.000E+00	-3.441E+00	 0.000E+00	-0.000E+00	 3.473E+07	-0.000E+00	 1.519E+08	 1.093E+07	-0.000E+00	-9.349E+06	-0.000E+00	-4.634E+08	-0.000E+00
    0.1000	-1.153E-07	-0.000E+00	-2.416E-07	 0.000E+00	-1.082E-07	 0.000E+00	 8.422E-01	 0.000E+00	-3.304E-03	 0.000E+00	 6.226E-01	 0.000E+00	-0.000E+00	-0.000E+00	 4.263E+04	-0.000E+00	 8.422E-01	 0.000E+00	-3.304E-03	 0.000E+00	 1.087E-02	 0.000E+00	 9.638E+00	 0.000E+00	 1.303E+01	 0.000E+00	 3.096E+00	 0.000E+00	-0.000E+00	 1.990E+07	-0.000E+00	 1.461E+08	 1.060E+07	-0.000E+00	-1.125E+07	-0.000E+00	-4.466E+08	-0.000E+00
    0.1100	-5.636E-08	-0.000E+00	-2.015E-07	 0.000E+00	-6.664E-08	 0.000E+00	 8.166E-01	 0.000E+00	-2.864E-03	 0.000E+00	 6.045E-01	 0.000E+00	-0.000E+00	-0.000E+00	-7.304E+03	-0.000E+00	 8.166E-01	 0.000E+00	-2.864E-03	 0.000E+00	 1.055E-02	 0.000E+00	 4.391E+00	 0.000E+00	 9.337E+00	 0.000E+00	 2.214E+00	 0.000E+00	-0.000E+00	 2.027E+07	-0.000E+00	 1.411E+08	 1.032E+07	-0.000E+00	-1.021E+07	-0.000E+00	-4.366E+08	-0.000E+00
    0.1200	 3.139E-07	-0.000E+00	-7.715E-08	 0.000E+00	 1.749E-07	 0.000E+00	 7.912E-01	 0.000E+00	-1.558E-03	 0.000E+00	 5.977E-01	 0.000E+00	-0.000E+00	-0.000E+00	-6.493E+04	-0.000E+00	 7.912E-01	 0.000E+00	-1.558E-03	 0.000E+00	 1.043E-02	 0.000E+00	-2.872E+01	 0.000E+00	-1.631E+00	 0.000E+00	-2.766E+00	 0.000E+00	-0.000E+00	 3.063E+07	-0.000E+00	 1.379E+08	 9.983E+06	-0.000E+00	-7.125E+06	-0.000E+00	-4.240E+08	-0.000E+00
    0.1300	 1.301E-07	-0.000E+00	 1.405E-08	 0.000E+00	 7.675E-08	 0.000E+00	 7.630E-01	 0.000E+00	-4.382E-04	 0.000E+00	 5.762E-01	 0.000E+00	-0.000E+00	-0.000E+00	-7.574E+04	-0.000E+00	 7.630E-01	 0.000E+00	-4.382E-04	 0.000E+00	 1.006E-02	 0.000E+00	-1.256E+01	 0.000E+00	-1.103E+01	 0.000E+00	-7.763E-02	 0.000E+00	-0.000E+00	 2.828E+07	-0.000E+00	 1.399E+08	 9.111E+06	-0.000E+00	-4.481E+06	-0.000E+00	-3.683E+08	-0.000E+00
    0.1400	-4.921E-08	-0.000E+00	 1.321E-08	 0.000E+00	-3.222E-08	 0.000E+00	 7.337E-01	 0.000E+00	-3.820E-04	 0.000E+00	 5.548E-01	 0.000E+00	-0.000E+00	-0.000E+00	-2.109E+04	-0.000E+00	 7.337E-01	 0.000E+00	-3.820E-04	 0.000E+00	 9.684E-03	 0.000E+00	 3.255E+00	 0.000E+00	-1.150E+01	 0.000E+00	 2.610E+00	 0.000E+00	-0.000E+00	 2.652E+07	-0.000E+00	 1.440E+08	 8.060E+06	-0.000E+00	-4.349E+06	-0.000E+00	-2.995E+08	-0.000E+00
    0.1500	 2.440E-07	-0.000E+00	-6.741E-08	 0.000E+00	 1.323E-07	 0.000E+00	 7.045E-01	 0.000E+00	-1.406E-03	 0.000E+00	 5.470E-01	 0.000E+00	-0.000E+00	-0.000E+00	 6.189E+04	-0.000E+00	 7.045E-01	 0.000E+00	-1.406E-03	 0.000E+00	 9.548E-03	 0.000E+00	-2.294E+01	 0.000E+00	-2.900E+00	 0.000E+00	-1.081E+00	 0.000E+00	-0.000E+00	 3.746E+07	-0.000E+00	 1.470E+08	 7.171E+06	-0.000E+00	-6.768E+06	-0.000E+00	-2.459E+08	-0.000E+00
    0.1600	 3.487E-07	-0.000E+00	-1.752E-07	 0.000E+00	 1.791E-07	 0.000E+00	 6.731E-01	 0.000E+00	-2.678E-03	 0.000E+00	 5.331E-01	 0.000E+00	-0.000E+00	-0.000E+00	 1.088E+05	-0.000E+00	 6.731E-01	 0.000E+00	-2.678E-03	 0.000E+00	 9.304E-03	 0.000E+00	-3.235E+01	 0.000E+00	 7.777E+00	 0.000E+00	-2.169E+00	 0.000E+00	-0.000E+00	 4.402E+07	-0.000E+00	 1.509E+08	 6.133E+06	-0.000E+00	-9.771E+06	-0.000E+00	-1.808E+08	-0.000E+00
    0.1700	 1.450E-07	-0.000E+00	-2.259E-07	 0.000E+00	 4.821E-08	 0.000E+00	 6.385E-01	 0.000E+00	-3.188E-03	 0.000E+00	 5.079E-01	 0.000E+00	-0.000E+00	-0.000E+00	 7.011E+04	-0.000E+00	 6.385E-01	 0.000E+00	-3.188E-03	 0.000E+00	 8.865E-03	 0.000E+00	-1.436E+01	 0.000E+00	 1.206E+01	 0.000E+00	 8.943E-01	 0.000E+00	-0.000E+00	 4.202E+07	-0.000E+00	 1.552E+08	 4.936E+06	-0.000E+00	-1.098E+07	-0.000E+00	-1.029E+08	-0.000E+00
    0.1800	 2.136E-07	-0.000E+00	-1.691E-07	 0.000E+00	 9.739E-08	 0.000E+00	 6.024E-01	 0.000E+00	-2.552E-03	 0.000E+00	 4.874E-01	 0.000E+00	-0.000E+00	-0.000E+00	-4.036E+04	-0.000E+00	 6.024E-01	 0.000E+00	-2.552E-03	 0.000E+00	 8.508E-03	 0.000E+00	-2.063E+01	 0.000E+00	 6.723E+00	 0.000E+00	 1.538E-01	 0.000E+00	-0.000E+00	 4.586E+07	-0.000E+00	 1.561E+08	 3.985E+06	-0.000E+00	-9.475E+06	-0.000E+00	-4.614E+07	-0.000E+00
    0.1900	 4.016E-07	-0.000E+00	-5.553E-08	 0.000E+00	 2.272E-07	 0.000E+00	 5.642E-01	 0.000E+00	-1.301E-03	 0.000E+00	 4.671E-01	 0.000E+00	-0.000E+00	-0.000E+00	-1.348E+05	-0.000E+00	 5.642E-01	 0.000E+00	-1.301E-03	 0.000E+00	 8.153E-03	 0.000E+00	-3.752E+01	 0.000E+00	-3.784E+00	 0.000E+00	-2.309E+00	 0.000E+00	-0.000E+00	 5.177E+07	-0.000E+00	 1.533E+08	 3.261E+06	-0.000E+00	-6.520E+06	-0.000E+00	-8.394E+06	-0.000E+00
    0.2000	 2.926E-07	-0.000E+00	 1.619E-08	 0.000E+00	 1.719E-07	 0.000E+00	 5.224E-01	 0.000E+00	-4.371E-04	 0.000E+00	 4.343E-01	 0.000E+00	-0.000E+00	-0.000E+00	-1.251E+05	-0.000E+00	 5.224E-01	 0.000E+00	-4.371E-04	 0.000E+00	 7.579E-03	 0.000E+00	-2.786E+01	 0.000E+00	-1.104E+01	 0.000E+00	-8.427E-01	 0.000E+00	-0.000E+00	 4.864E+07	-0.000E+00	 1.482E+08	 2.562E+06	-0.000E+00	-4.479E+06	-0.000E+00	 2.763E+07	-0.000E+00
    0.2100	 1.818E-07	-0.000E+00	-3.549E-09	 0.000E+00	 1.025E-07	 0.000E+00	 4.778E-01	 0.000E+00	-6.307E-04	 0.000E+00	 3.968E-01	 0.000E+00	-0.000E+00	-0.000E+00	-5.772E+03	-0.000E+00	 4.778E-01	 0.000E+00	-6.307E-04	 0.000E+00	 6.925E-03	 0.000E+00	-1.789E+01	 0.000E+00	-9.413E+00	 0.000E+00	 5.022E-01	 0.000E+00	-0.000E+00	 4.358E+07	-0.000E+00	 1.391E+08	 2.077E+06	-0.000E+00	-4.936E+06	-0.000E+00	 4.619E+07	-0.000E+00
    0.2200	 2.878E-07	-0.000E+00	-9.336E-08	 0.000E+00	 1.540E-07	 0.000E+00	 4.313E-01	 0.000E+00	-1.703E-03	 0.000E+00	 3.614E-01	 0.000E+00	-0.000E+00	-0.000E+00	 1.345E+05	-0.000E+00	 4.313E-01	 0.000E+00	-1.703E-03	 0.000E+00	 6.308E-03	 0.000E+00	-2.710E+01	 0.000E+00	-4.117E-01	 0.000E+00	-1.237E+00	 0.000E+00	-0.000E+00	 4.246E+07	-0.000E+00	 1.250E+08	 1.935E+06	-0.000E+00	-7.468E+06	-0.000E+00	 3.639E+07	-0.000E+00
    0.2300	 2.784E-07	-0.000E+00	-1.873E-07	 0.000E+00	 1.356E-07	 0.000E+00	 3.822E-01	 0.000E+00	-2.787E-03	 0.000E+00	 3.192E-01	 0.000E+00	-0.000E+00	-0.000E+00	 1.830E+05	-0.000E+00	 3.822E-01	 0.000E+00	-2.787E-03	 0.000E+00	 5.571E-03	 0.000E+00	-2.599E+01	 0.000E+00	 8.695E+00	 0.000E+00	-1.506E+00	 0.000E+00	-0.000E+00	 3.706E+07	-0.000E+00	 1.080E+08	 1.917E+06	-0.000E+00	-1.003E+07	-0.000E+00	 1.657E+07	-0.000E+00
    0.2400	 1.086E-07	-0.000E+00	-2.120E-07	 0.000E+00	 3.074E-08	 0.000E+00	 3.305E-01	 0.000E+00	-3.029E-03	 0.000E+00	 2.691E-01	 0.000E+00	-0.000E+00	-0.000E+00	 8.284E+04	-0.000E+00	 3.305E-01	 0.000E+00	-3.029E-03	 0.000E+00	 4.696E-03	 0.000E+00	-1.060E+01	 0.000E+00	 1.072E+01	 0.000E+00	 3.059E-01	 0.000E+00	-0.000E+00	 2.622E+07	-0.000E+00	 8.890E+07	 1.952E+06	-0.000E+00	-1.060E+07	-0.000E+00	-7.279E+06	-0.000E+00
    0.2500	 7.324E-08	-0.000E+00	-1.451E-07	 0.000E+00	 2.041E-08	 0.000E+00	 2.777E-01	 0.000E+00	-2.257E-03	 0.000E+00	 2.205E-01	 0.000E+00	-0.000E+00	-0.000E+00	-1.065E+05	-0.000E+00	 2.777E-01	 0.000E+00	-2.257E-03	 0.000E+00	 3.848E-03	 0.000E+00	-7.161E+00	 0.000E+00	 4.243E+00	 0.000E+00	 2.134E-01	 0.000E+00	-0.000E+00	 1.789E+07	-0.000E+00	 6.728E+07	 2.161E+06	-0.000E+00	-8.777E+06	-0.000E+00	-4.576E+07	-0.000E+00
    0.2600	 9.917E-08	-0.000E+00	-4.380E-08	 0.000E+00	 5.214E-08	 0.000E+00	 2.242E-01	 0.000E+00	-1.106E-03	 0.000E+00	 1.727E-01	 0.000E+00	-0.000E+00	-0.000E+00	-2.296E+05	-0.000E+00	 2.242E-01	 0.000E+00	-1.106E-03	 0.000E+00	 3.014E-03	 0.000E+00	-9.170E+00	 0.000E+00	-5.423E+00	 0.000E+00	-7.357E-01	 0.000E+00	-0.000E+00	 1.097E+07	-0.000E+00	 4.446E+07	 2.448E+06	-0.000E+00	-6.058E+06	-0.000E+00	-9.096E+07	-0.000E+00
    0.2700	-1.405E-08	-0.000E+00	 7.552E-09	 0.000E+00	-7.397E-09	 0.000E+00	 1.698E-01	 0.000E+00	-4.930E-04	 0.000E+00	 1.210E-01	 0.000E+00	-0.000E+00	-0.000E+00	-1.674E+05	-0.000E+00	 1.698E-01	 0.000E+00	-4.930E-04	 0.000E+00	 2.111E-03	 0.000E+00	 1.228E+00	 0.000E+00	-1.057E+01	 0.000E+00	 2.252E-01	 0.000E+00	-0.000E+00	 7.904E+05	-0.000E+00	 2.249E+07	 2.630E+06	-0.000E+00	-4.611E+06	-0.000E+00	-1.277E+08	-0.000E+00
    0.2800	-1.146E-07	-0.000E+00	-2.804E-08	 0.000E+00	-7.212E-08	 0.000E+00	 1.156E-01	 0.000E+00	-8.874E-04	 0.000E+00	 7.049E-02	 0.000E+00	-0.000E+00	-0.000E+00	 4.166E+04	-0.000E+00	 1.156E-01	 0.000E+00	-8.874E-04	 0.000E+00	 1.230E-03	 0.000E+00	 1.050E+01	 0.000E+00	-7.257E+00	 0.000E+00	 1.055E+00	 0.000E+00	-0.000E+00	-8.478E+06	-0.000E+00	 1.793E+06	 2.728E+06	-0.000E+00	-5.542E+06	-0.000E+00	-1.580E+08	-0.000E+00
    0.2900	-8.813E-08	-0.000E+00	-1.191E-07	 0.000E+00	-6.842E-08	 0.000E+00	 6.233E-02	 0.000E+00	-1.953E-03	 0.000E+00	 2.564E-02	 0.000E+00	-0.000E+00	-0.000E+00	 2.322E+05	-0.000E+00	 6.233E-02	 0.000E+00	-1.953E-03	 0.000E+00	 4.474E-04	 0.000E+00	 8.399E+00	 0.000E+00	 1.689E+00	 0.000E+00	 2.410E-01	 0.000E+00	-0.000E+00	-1.341E+07	-0.000E+00	-1.714E+07	 2.748E+06	-0.000E+00	-8.059E+06	-0.000E+00	-1.827E+08	-0.000E+00
    0.3000	-1.004E-07	-0.000E+00	-1.952E-07	 0.000E+00	-8.611E-08	 0.000E+00	 9.913E-03	 0.000E+00	-2.834E-03	 0.000E+00	-1.763E-02	 0.000E+00	-0.000E+00	-0.000E+00	 2.499E+05	-0.000E+00	 9.913E-03	 0.000E+00	-2.834E-03	 0.000E+00	-3.078E-04	 0.000E+00	 9.664E+00	 0.000E+00	 9.087E+00	 0.000E+00	 8.108E-02	 0.000E+00	-0.000E+00	-1.791E+07	-0.000E+00	-3.265E+07	 2.540E+06	-0.000E+00	-1.014E+07	-0.000E+00	-1.894E+08	-0.000E+00
    0.3100	-1.809E-07	-0.000E+00	-1.970E-07	 0.000E+00	-1.344E-07	 0.000E+00	-4.152E-02	 0.000E+00	-2.840E-03	 0.000E+00	-5.993E-02	 0.000E+00	-0.000E+00	-0.000E+00	 6.297E+04	-0.000E+00	-4.152E-02	 0.000E+00	-2.840E-03	 0.000E+00	-1.046E-03	 0.000E+00	 1.693E+01	 0.000E+00	 9.141E+00	 0.000E+00	 9.860E-01	 0.000E+00	-0.000E+00	-2.274E+07	-0.000E+00	-4.414E+07	 2.060E+06	-0.000E+00	-1.015E+07	-0.000E+00	-1.743E+08	-0.000E+00
    0.3200	-1.790E-07	-0.000E+00	-1.228E-07	 0.000E+00	-1.223E-07	 0.000E+00	-9.127E-02	 0.000E+00	-1.988E-03	 0.000E+00	-9.672E-02	 0.000E+00	-0.000E+00	-0.000E+00	-1.954E+05	-0.000E+00	-9.127E-02	 0.000E+00	-1.988E-03	 0.000E+00	-1.688E-03	 0.000E+00	 1.680E+01	 0.000E+00	 1.983E+00	 0.000E+00	 8.959E-01	 0.000E+00	-0.000E+00	-2.399E+07	-0.000E+00	-5.235E+07	 1.402E+06	-0.000E+00	-8.141E+06	-0.000E+00	-1.455E+08	-0.000E+00
    0.3300	-1.242E-07	-0.000E+00	-3.349E-08	 0.000E+00	-7.640E-08	 0.000E+00	-1.394E-01	 0.000E+00	-9.701E-04	 0.000E+00	-1.288E-01	 0.000E+00	-0.000E+00	-0.000E+00	-3.094E+05	-0.000E+00	-1.394E-01	 0.000E+00	-9.701E-04	 0.000E+00	-2.247E-03	 0.000E+00	 1.190E+01	 0.000E+00	-6.563E+00	 0.000E+00	 2.030E-01	 0.000E+00	-0.000E+00	-2.232E+07	-0.000E+00	-5.750E+07	 5.789E+05	-0.000E+00	-5.738E+06	-0.000E+00	-1.037E+08	-0.000E+00
    0.3400	-1.281E-07	-0.000E+00	-1.126E-09	 0.000E+00	-7.440E-08	 0.000E+00	-1.863E-01	 0.000E+00	-5.940E-04	 0.000E+00	-1.596E-01	 0.000E+00	-0.000E+00	-0.000E+00	-1.700E+05	-0.000E+00	-1.863E-01	 0.000E+00	-5.940E-04	 0.000E+00	-2.786E-03	 0.000E+00	 1.218E+01	 0.000E+00	-9.720E+00	 0.000E+00	 3.997E-01	 0.000E+00	-0.000E+00	-2.079E+07	-0.000E+00	-5.964E+07	-4.368E+05	-0.000E+00	-4.850E+06	-0.000E+00	-4.625E+07	-0.000E+00
    0.3500	-1.267E-07	-0.000E+00	-4.869E-08	 0.000E+00	-8.098E-08	 0.000E+00	-2.320E-01	 0.000E+00	-1.140E-03	 0.000E+00	-1.883E-01	 0.000E+00	-0.000E+00	-0.000E+00	 1.145E+05	-0.000E+00	-2.320E-01	 0.000E+00	-1.140E-03	 0.000E+00	-3.287E-03	 0.000E+00	 1.192E+01	 0.000E+00	-5.138E+00	 0.000E+00	 5.794E-01	 0.000E+00	-0.000E+00	-1.828E+07	-0.000E+00	-5.981E+07	-1.559E+06	-0.000E+00	-6.138E+06	-0.000E+00	 1.982E+07	-0.000E+00
    0.3600	-6.002E-08	-0.000E+00	-1.358E-07	 0.000E+00	-5.398E-08	 0.000E+00	-2.765E-01	 0.000E+00	-2.154E-03	 0.000E+00	-2.138E-01	 0.000E+00	-0.000E+00	-0.000E+00	 3.151E+05	-0.000E+00	-2.765E-01	 0.000E+00	-2.154E-03	 0.000E+00	-3.732E-03	 0.000E+00	 5.816E+00	 0.000E+00	 3.378E+00	 0.000E+00	-9.565E-02	 0.000E+00	-0.000E+00	-1.370E+07	-0.000E+00	-5.918E+07	-2.700E+06	-0.000E+00	-8.534E+06	-0.000E+00	 8.737E+07	-0.000E+00
    0.3700	-1.679E-08	-0.000E+00	-1.937E-07	 0.000E+00	-3.684E-08	 0.000E+00	-3.204E-01	 0.000E+00	-2.827E-03	 0.000E+00	-2.397E-01	 0.000E+00	-0.000E+00	-0.000E+00	 2.710E+05	-0.000E+00	-3.204E-01	 0.000E+00	-2.827E-03	 0.000E+00	-4.183E-03	 0.000E+00	 1.797E+00	 0.000E+00	 9.025E+00	 0.000E+00	-4.378E-01	 0.000E+00	-0.000E+00	-9.805E+06	-0.000E+00	-5.824E+07	-3.852E+06	-0.000E+00	-1.012E+07	-0.000E+00	 1.562E+08	-0.000E+00
    0.3800	-2.641E-08	-0.000E+00	-1.777E-07	 0.000E+00	-4.069E-08	 0.000E+00	-3.642E-01	 0.000E+00	-2.635E-03	 0.000E+00	-2.676E-01	 0.000E+00	-0.000E+00	-0.000E+00	 6.195E+03	-0.000E+00	-3.642E-01	 0.000E+00	-2.635E-03	 0.000E+00	-4.670E-03	 0.000E+00	 2.527E+00	 0.000E+00	 7.421E+00	 0.000E+00	-8.820E-02	 0.000E+00	-0.000E+00	-7.900E+06	-0.000E+00	-5.794E+07	-4.964E+06	-0.000E+00	-9.671E+06	-0.000E+00	 2.225E+08	-0.000E+00
    0.3900	-1.162E-08	-0.000E+00	-1.010E-07	 0.000E+00	-2.090E-08	 0.000E+00	-4.077E-01	 0.000E+00	-1.752E-03	 0.000E+00	-2.961E-01	 0.000E+00	-0.000E+00	-0.000E+00	-2.784E+05	-0.000E+00	-4.077E-01	 0.000E+00	-1.752E-03	 0.000E+00	-5.168E-03	 0.000E+00	 1.157E+00	 0.000E+00	 2.995E-03	 0.000E+00	-1.455E-01	 0.000E+00	-0.000E+00	-6.371E+06	-0.000E+00	-5.974E+07	-5.918E+06	-0.000E+00	-7.585E+06	-0.000E+00	 2.767E+08	-0.000E+00
    0.4000	 2.032E-08	-0.000E+00	-2.579E-08	 0.000E+00	 9.225E-09	 0.000E+00	-4.510E-01	 0.000E+00	-8.900E-04	 0.000E+00	-3.257E-01	 0.000E+00	-0.000E+00	-0.000E+00	-3.475E+05	-0.000E+00	-4.510E-01	 0.000E+00	-8.900E-04	 0.000E+00	-5.685E-03	 0.000E+00	-1.670E+00	 0.000E+00	-7.236E+00	 0.000E+00	-5.465E-01	 0.000E+00	-0.000E+00	-5.541E+06	-0.000E+00	-6.446E+07	-6.659E+06	-0.000E+00	-5.549E+06	-0.000E+00	 3.145E+08	-0.000E+00
    0.4100	 6.303E-09	-0.000E+00	-1.188E-08	 0.000E+00	 2.973E-09	 0.000E+00	-4.946E-01	 0.000E+00	-7.287E-04	 0.000E+00	-3.586E-01	 0.000E+00	-0.000E+00	-0.000E+00	-1.324E+05	-0.000E+00	-4.946E-01	 0.000E+00	-7.287E-04	 0.000E+00	-6.258E-03	 0.000E+00	-3.583E-01	 0.000E+00	-8.590E+00	 0.000E+00	-4.543E-01	 0.000E+00	-0.000E+00	-7.166E+06	-0.000E+00	-7.226E+07	-7.192E+06	-0.000E+00	-5.168E+06	-0.000E+00	 3.365E+08	-0.000E+00
    0.4200	-2.693E-08	-0.000E+00	-6.830E-08	 0.000E+00	-2.483E-08	 0.000E+00	-5.381E-01	 0.000E+00	-1.378E-03	 0.000E+00	-3.940E-01	 0.000E+00	-0.000E+00	-0.000E+00	 1.963E+05	-0.000E+00	-5.381E-01	 0.000E+00	-1.378E-03	 0.000E+00	-6.877E-03	 0.000E+00	 2.696E+00	 0.000E+00	-3.140E+00	 0.000E+00	-2.360E-01	 0.000E+00	-0.000E+00	-1.074E+07	-0.000E+00	-8.332E+07	-7.498E+06	-0.000E+00	-6.701E+06	-0.000E+00	 3.413E+08	-0.000E+00
    0.4300	-4.047E-08	-0.000E+00	-1.484E-07	 0.000E+00	-4.392E-08	 0.000E+00	-5.814E-01	 0.000E+00	-2.306E-03	 0.000E+00	-4.308E-01	 0.000E+00	-0.000E+00	-0.000E+00	 3.727E+05	-0.000E+00	-5.814E-01	 0.000E+00	-2.306E-03	 0.000E+00	-7.520E-03	 0.000E+00	 4.037E+00	 0.000E+00	 4.650E+00	 0.000E+00	-3.978E-01	 0.000E+00	-0.000E+00	-1.527E+07	-0.000E+00	-9.748E+07	-7.575E+06	-0.000E+00	-8.892E+06	-0.000E+00	 3.286E+08	-0.000E+00
    0.4400	-7.408E-08	-0.000E+00	-1.888E-07	 0.000E+00	-6.908E-08	 0.000E+00	-6.243E-01	 0.000E+00	-2.774E-03	 0.000E+00	-4.696E-01	 0.000E+00	-0.000E+00	-0.000E+00	 2.546E+05	-0.000E+00	-6.243E-01	 0.000E+00	-2.774E-03	 0.000E+00	-8.197E-03	 0.000E+00	 7.229E+00	 0.000E+00	 8.585E+00	 0.000E+00	-3.633E-01	 0.000E+00	-0.000E+00	-2.157E+07	-0.000E+00	-1.139E+08	-7.485E+06	-0.000E+00	-9.998E+06	-0.000E+00	 3.034E+08	-0.000E+00
    0.4500	-1.445E-07	-0.000E+00	-1.586E-07	 0.000E+00	-1.060E-07	 0.000E+00	-6.664E-01	 0.000E+00	-2.425E-03	 0.000E+00	-5.102E-01	 0.000E+00	-0.000E+00	-0.000E+00	-7.046E+04	-0.000E+00	-6.664E-01	 0.000E+00	-2.425E-03	 0.000E+00	-8.905E-03	 0.000E+00	 1.378E+01	 0.000E+00	 5.657E+00	 0.000E+00	 1.207E-01	 0.000E+00	-0.000E+00	-2.975E+07	-0.000E+00	-1.318E+08	-7.279E+06	-0.000E+00	-9.175E+06	-0.000E+00	 2.700E+08	-0.000E+00
    0.4600	-2.040E-07	-0.000E+00	-8.282E-08	 0.000E+00	-1.297E-07	 0.000E+00	-7.071E-01	 0.000E+00	-1.554E-03	 0.000E+00	-5.501E-01	 0.000E+00	-0.000E+00	-0.000E+00	-3.496E+05	-0.000E+00	-7.071E-01	 0.000E+00	-1.554E-03	 0.000E+00	-9.601E-03	 0.000E+00	 1.943E+01	 0.000E+00	-1.660E+00	 0.000E+00	 4.234E-01	 0.000E+00	-0.000E+00	-3.810E+07	-0.000E+00	-1.507E+08	-6.973E+06	-0.000E+00	-7.117E+06	-0.000E+00	 2.295E+08	-0.000E+00
    0.4700	-2.427E-07	-0.000E+00	-2.206E-08	 0.000E+00	-1.431E-07	 0.000E+00	-7.459E-01	 0.000E+00	-8.595E-04	 0.000E+00	-5.879E-01	 0.000E+00	-0.000E+00	-0.000E+00	-3.534E+05	-0.000E+00	-7.459E-01	 0.000E+00	-8.595E-04	 0.000E+00	-1.026E-02	 0.000E+00	 2.323E+01	 0.000E+00	-7.491E+00	 0.000E+00	 4.311E-01	 0.000E+00	-0.000E+00	-4.575E+07	-0.000E+00	-1.695E+08	-6.614E+06	-0.000E+00	-5.477E+06	-0.000E+00	 1.855E+08	-0.000E+00
    0.4800	-2.912E-07	-0.000E+00	-2.390E-08	 0.000E+00	-1.716E-07	 0.000E+00	-7.824E-01	 0.000E+00	-8.855E-04	 0.000E+00	-6.235E-01	 0.000E+00	-0.000E+00	-0.000E+00	-6.912E+04	-0.000E+00	-7.824E-01	 0.000E+00	-8.855E-04	 0.000E+00	-1.088E-02	 0.000E+00	 2.783E+01	 0.000E+00	-7.273E+00	 0.000E+00	 5.940E-01	 0.000E+00	-0.000E+00	-5.297E+07	-0.000E+00	-1.871E+08	-6.284E+06	-0.000E+00	-5.538E+06	-0.000E+00	 1.448E+08	-0.000E+00
    0.4900	-3.388E-07	-0.000E+00	-8.497E-08	 0.000E+00	-2.083E-07	 0.000E+00	-8.161E-01	 0.000E+00	-1.594E-03	 0.000E+00	-6.557E-01	 0.000E+00	-0.000E+00	-0.000E+00	 2.747E+05	-0.000E+00	-8.161E-01	 0.000E+00	-1.594E-03	 0.000E+00	-1.144E-02	 0.000E+00	 3.225E+01	 0.000E+00	-1.327E+00	 0.000E+00	 8.086E-01	 0.000E+00	-0.000E+00	-5.917E+07	-0.000E+00	-2.023E+08	-6.050E+06	-0.000E+00	-7.210E+06	-0.000E+00	 1.125E+08	-0.000E+00
    0.5000	-3.602E-07	-0.000E+00	-1.552E-07	 0.000E+00	-2.307E-07	 0.000E+00	-8.466E-01	 0.000E+00	-2.409E-03	 0.000E+00	-6.832E-01	 0.000E+00	-0.000E+00	-0.000E+00	 3.986E+05	-0.000E+00	-8.466E-01	 0.000E+00	-2.409E-03	 0.000E+00	-1.192E-02	 0.000E+00	 3.425E+01	 0.000E+00	 5.519E+00	 0.000E+00	 7.797E-01	 0.000E+00	-0.000E+00	-6.348E+07	-0.000E+00	-2.144E+08	-5.957E+06	-0.000E+00	-9.136E+06	-0.000E+00	 9.236E+07	-0.000E+00
    0.5100	-3.724E-07	-0.000E+00	-1.790E-07	 0.000E+00	-2.411E-07	 0.000E+00	-8.737E-01	 0.000E+00	-2.686E-03	 0.000E+00	-7.060E-01	 0.000E+00	-0.000E+00	-0.000E+00	 2.053E+05	-0.000E+00	-8.737E-01	 0.000E+00	-2.686E-03	 0.000E+00	-1.232E-02	 0.000E+00	 3.540E+01	 0.000E+00	 7.848E+00	 0.000E+00	 7.725E-01	 0.000E+00	-0.000E+00	-6.615E+07	-0.000E+00	-2.226E+08	-6.055E+06	-0.000E+00	-9.791E+06	-0.000E+00	 8.826E+07	-0.000E+00
    0.5200	-3.882E-07	-0.000E+00	-1.385E-07	 0.000E+00	-2.446E-07	 0.000E+00	-8.972E-01	 0.000E+00	-2.220E-03	 0.000E+00	-7.241E-01	 0.000E+00	-0.000E+00	-0.000E+00	-1.505E+05	-0.000E+00	-8.972E-01	 0.000E+00	-2.220E-03	 0.000E+00	-1.264E-02	 0.000E+00	 3.686E+01	 0.000E+00	 3.935E+00	 0.000E+00	 9.649E-01	 0.000E+00	-0.000E+00	-6.737E+07	-0.000E+00	-2.266E+08	-6.358E+06	-0.000E+00	-8.690E+06	-0.000E+00	 1.014E+08	-0.000E+00
    0.5300	-3.837E-07	-0.000E+00	-6.710E-08	 0.000E+00	-2.316E-07	 0.000E+00	-9.171E-01	 0.000E+00	-1.396E-03	 0.000E+00	-7.368E-01	 0.000E+00	-0.000E+00	-0.000E+00	-3.874E+05	-0.000E+00	-9.171E-01	 0.000E+00	-1.396E-03	 0.000E+00	-1.286E-02	 0.000E+00	 3.649E+01	 0.000E+00	-2.986E+00	 0.000E+00	 1.008E+00	 0.000E+00	-0.000E+00	-6.648E+07	-0.000E+00	-2.269E+08	-6.831E+06	-0.000E+00	-6.744E+06	-0.000E+00	 1.290E+08	-0.000E+00
    0.5400	-3.517E-07	-0.000E+00	-2.165E-08	 0.000E+00	-2.062E-07	 0.000E+00	-9.333E-01	 0.000E+00	-8.721E-04	 0.000E+00	-7.441E-01	 0.000E+00	-0.000E+00	-0.000E+00	-3.154E+05	-0.000E+00	-9.333E-01	 0.000E+00	-8.721E-04	 0.000E+00	-1.299E-02	 0.000E+00	 3.358E+01	 0.000E+00	-7.385E+00	 0.000E+00	 7.706E-01	 0.000E+00	-0.000E+00	-6.336E+07	-0.000E+00	-2.240E+08	-7.433E+06	-0.000E+00	-5.506E+06	-0.000E+00	 1.678E+08	-0.000E+00
    0.5500	-3.153E-07	-0.000E+00	-3.755E-08	 0.000E+00	-1.872E-07	 0.000E+00	-9.462E-01	 0.000E+00	-1.054E-03	 0.000E+00	-7.473E-01	 0.000E+00	-0.000E+00	-0.000E+00	 8.695E+03	-0.000E+00	-9.462E-01	 0.000E+00	-1.054E-03	 0.000E+00	-1.304E-02	 0.000E+00	 3.016E+01	 0.000E+00	-5.855E+00	 0.000E+00	 5.407E-01	 0.000E+00	-0.000E+00	-5.888E+07	-0.000E+00	-2.185E+08	-8.139E+06	-0.000E+00	-5.937E+06	-0.000E+00	 2.160E+08	-0.000E+00
    0.5600	-2.803E-07	-0.000E+00	-1.009E-07	 0.000E+00	-1.761E-07	 0.000E+00	-9.561E-01	 0.000E+00	-1.782E-03	 0.000E+00	-7.473E-01	 0.000E+00	-0.000E+00	-0.000E+00	 3.220E+05	-0.000E+00	-9.561E-01	 0.000E+00	-1.782E-03	 0.000E+00	-1.304E-02	 0.000E+00	 2.679E+01	 0.000E+00	 2.540E-01	 0.000E+00	 3.806E-01	 0.000E+00	-0.000E+00	-5.371E+07	-0.000E+00	-2.109E+08	-8.911E+06	-0.000E+00	-7.655E+06	-0.000E+00	 2.705E+08	-0.000E+00
    0.5700	-2.378E-07	-0.000E+00	-1.606E-07	 0.000E+00	-1.600E-07	 0.000E+00	-9.633E-01	 0.000E+00	-2.468E-03	 0.000E+00	-7.449E-01	 0.000E+00	-0.000E+00	-0.000E+00	 3.733E+05	-0.000E+00	-9.633E-01	 0.000E+00	-2.468E-03	 0.000E+00	-1.300E-02	 0.000E+00	 2.273E+01	 0.000E+00	 6.014E+00	 0.000E+00	 1.528E-01	 0.000E+00	-0.000E+00	-4.819E+07	-0.000E+00	-2.023E+08	-9.692E+06	-0.000E+00	-9.275E+06	-0.000E+00	 3.268E+08	-0.000E+00
    0.5800	-1.984E-07	-0.000E+00	-1.699E-07	 0.000E+00	-1.383E-07	 0.000E+00	-9.682E-01	 0.000E+00	-2.573E-03	 0.000E+00	-7.414E-01	 0.000E+00	-0.000E+00	-0.000E+00	 1.287E+05	-0.000E+00	-9.682E-01	 0.000E+00	-2.573E-03	 0.000E+00	-1.294E-02	 0.000E+00	 1.901E+01	 0.000E+00	 6.893E+00	 0.000E+00	-2.535E-02	 0.000E+00	-0.000E+00	-4.307E+07	-0.000E+00	-1.936E+08	-1.043E+07	-0.000E+00	-9.522E+06	-0.000E+00	 3.806E+08	-0.000E+00
    0.5900	-1.743E-07	-0.000E+00	-1.229E-07	 0.000E+00	-1.175E-07	 0.000E+00	-9.712E-01	 0.000E+00	-2.028E-03	 0.000E+00	-7.379E-01	 0.000E+00	-0.000E+00	-0.000E+00	-2.113E+05	-0.000E+00	-9.712E-01	 0.000E+00	-2.028E-03	 0.000E+00	-1.288E-02	 0.000E+00	 1.674E+01	 0.000E+00	 2.318E+00	 0.000E+00	-3.224E-02	 0.000E+00	-0.000E+00	-3.902E+07	-0.000E+00	-1.858E+08	-1.105E+07	-0.000E+00	-8.236E+06	-0.000E+00	 4.269E+08	-0.000E+00
    0.6000	-1.558E-07	-0.000E+00	-5.817E-08	 0.000E+00	-9.741E-08	 0.000E+00	-9.725E-01	 0.000E+00	-1.279E-03	 0.000E+00	-7.347E-01	 0.000E+00	-0.000E+00	-0.000E+00	-3.778E+05	-0.000E+00	-9.725E-01	 0.000E+00	-1.279E-03	 0.000E+00	-1.282E-02	 0.000E+00	 1.504E+01	 0.000E+00	-3.974E+00	 0.000E+00	-5.081E-02	 0.000E+00	-0.000E+00	-3.605E+07	-0.000E+00	-1.800E+08	-1.149E+07	-0.000E+00	-6.466E+06	-0.000E+00	 4.599E+08	-0.000E+00
    0.6100	-1.373E-07	-0.000E+00	-2.713E-08	 0.000E+00	-8.207E-08	 0.000E+00	-9.724E-01	 0.000E+00	-9.205E-04	 0.000E+00	-7.321E-01	 0.000E+00	-0.000E+00	-0.000E+00	-2.432E+05	-0.000E+00	-9.724E-01	 0.000E+00	-9.205E-04	 0.000E+00	-1.278E-02	 0.000E+00	 1.337E+01	 0.000E+00	-6.980E+00	 0.000E+00	-1.901E-01	 0.000E+00	-0.000E+00	-3.418E+07	-0.000E+00	-1.770E+08	-1.170E+07	-0.000E+00	-5.621E+06	-0.000E+00	 4.758E+08	-0.000E+00
    0.6200	-1.320E-07	-0.000E+00	-5.361E-08	 0.000E+00	-8.278E-08	 0.000E+00	-9.708E-01	 0.000E+00	-1.226E-03	 0.000E+00	-7.307E-01	 0.000E+00	-0.000E+00	-0.000E+00	 8.086E+04	-0.000E+00	-9.708E-01	 0.000E+00	-1.226E-03	 0.000E+00	-1.275E-02	 0.000E+00	 1.288E+01	 0.000E+00	-4.410E+00	 0.000E+00	-2.800E-01	 0.000E+00	-0.000E+00	-3.389E+07	-0.000E+00	-1.768E+08	-1.167E+07	-0.000E+00	-6.343E+06	-0.000E+00	 4.743E+08	-0.000E+00
    0.6300	-1.451E-07	-0.000E+00	-1.153E-07	 0.000E+00	-9.940E-08	 0.000E+00	-9.680E-01	 0.000E+00	-1.939E-03	 0.000E+00	-7.308E-01	 0.000E+00	-0.000E+00	-0.000E+00	 3.331E+05	-0.000E+00	-9.680E-01	 0.000E+00	-1.939E-03	 0.000E+00	-1.275E-02	 0.000E+00	 1.404E+01	 0.000E+00	 1.574E+00	 0.000E+00	-2.333E-01	 0.000E+00	-0.000E+00	-3.543E+07	-0.000E+00	-1.793E+08	-1.142E+07	-0.000E+00	-8.026E+06	-0.000E+00	 4.567E+08	-0.000E+00
    0.6400	-1.683E-07	-0.000E+00	-1.627E-07	 0.000E+00	-1.198E-07	 0.000E+00	-9.638E-01	 0.000E+00	-2.487E-03	 0.000E+00	-7.320E-01	 0.000E+00	-0.000E+00	-0.000E+00	 3.150E+05	-0.000E+00	-9.638E-01	 0.000E+00	-2.487E-03	 0.000E+00	-1.278E-02	 0.000E+00	 1.617E+01	 0.000E+00	 6.172E+00	 0.000E+00	-1.330E-01	 0.000E+00	-0.000E+00	-3.854E+07	-0.000E+00	-1.841E+08	-1.098E+07	-0.000E+00	-9.320E+06	-0.000E+00	 4.250E+08	-0.000E+00
    0.6500	-2.002E-07	-0.000E+00	-1.586E-07	 0.000E+00	-1.378E-07	 0.000E+00	-9.579E-01	 0.000E+00	-2.442E-03	 0.000E+00	-7.337E-01	 0.000E+00	-0.000E+00	-0.000E+00	 4.961E+04	-0.000E+00	-9.579E-01	 0.000E+00	-2.442E-03	 0.000E+00	-1.281E-02	 0.000E+00	 1.917E+01	 0.000E+00	 5.792E+00	 0.000E+00	 3.019E-02	 0.000E+00	-0.000E+00	-4.292E+07	-0.000E+00	-1.906E+08	-1.038E+07	-0.000E+00	-9.213E+06	-0.000E+00	 3.819E+08	-0.000E+00
    0.6600	-2.421E-07	-0.000E+00	-1.075E-07	 0.000E+00	-1.548E-07	 0.000E+00	-9.501E-01	 0.000E+00	-1.854E-03	 0.000E+00	-7.352E-01	 0.000E+00	-0.000E+00	-0.000E+00	-2.456E+05	-0.000E+00	-9.501E-01	 0.000E+00	-1.854E-03	 0.000E+00	-1.283E-02	 0.000E+00	 2.314E+01	 0.000E+00	 8.564E-01	 0.000E+00	 2.908E-01	 0.000E+00	-0.000E+00	-4.816E+07	-0.000E+00	-1.981E+08	-9.666E+06	-0.000E+00	-7.825E+06	-0.000E+00	 3.308E+08	-0.000E+00