
Predictions were generated on 24-Oct-2019 at 16:50:56 using OpenFAST, compiled as a 64-bit application using single precision at commit v2.1.0-184-g4231be2e-dirty
 linked with  NWTC Subroutine Library; ElastoDyn; SubDyn

Description from the FAST input file: MonopileOnly

Time      	TwrBsFxt  	TwrBsFyt  	TwrBsFzt  	TwrBsMxt  	TwrBsMyt  	TwrBsMzt  	PtfmSurge 	PtfmSway  	PtfmHeave 	PtfmRoll  	PtfmPitch 	PtfmYaw   	M1N1FKXe  	M1N1FKYe  	M1N1FKZe  	M1N1MKXe  	M1N1MKYe  	M1N1MKZe  	M2N1FKXe  	M2N1FKYe  	M2N1FKZe  	M2N1MKXe  	M2N1MKYe  	M2N1MKZe  	-ReactFXss	-ReactFYss	-ReactFZss	-ReactMXss	-ReactMYss	-ReactMZss
(s)       	(kN)      	(kN)      	(kN)      	(kN-m)    	(kN-m)    	(kN-m)    	(m)       	(m)       	(m)       	(deg)     	(deg)     	(deg)     	(N)       	(N)       	(N)       	(N*m)     	(N*m)     	(N*m)     	(N)       	(N)       	(N)       	(N*m)     	(N*m)     	(N*m)     	(N)       	(N)       	(N)       	(Nm)      	(Nm)      	(Nm)      
    0.0000	-5.047E-07	-0.000E+00	 2.823E-08	 0.000E+00	-3.101E-07	 0.000E+00	 1.000E+00	 0.000E+00	 0.000E+00	 0.000E+00	 7.887E-01	 0.000E+00	 6.983E+06	-0.000E+00	-2.068E+05	-0.000E+00	 6.065E+08	-0.000E+00	 6.992E+06	-0.000E+00	-2.068E+05	-0.000E+00	 2.572E+08	-0.000E+00	 6.983E+06	-0.000E+00	-2.068E+05	-0.000E+00	-9.178E+07	-0.000E+00
    0.0100	 5.913E-07	-0.000E+00	 2.980E-09	 0.000E+00	 3.474E-07	 0.000E+00	 1.001E+00	 0.000E+00	-7.050E-04	 0.000E+00	 8.114E-01	 0.000E+00	 7.701E+06	-0.000E+00	-1.872E+06	-0.000E+00	 6.176E+08	-0.000E+00	 6.462E+06	-0.000E+00	-1.872E+06	-0.000E+00	 2.495E+08	-0.000E+00	 7.701E+06	-0.000E+00	-1.872E+06	-0.000E+00	-1.525E+08	-0.000E+00
    0.0200	 7.433E-07	-0.000E+00	-1.260E-07	 0.000E+00	 4.199E-07	 0.000E+00	 9.970E-01	 0.000E+00	-2.247E-03	 0.000E+00	 8.148E-01	 0.000E+00	 8.172E+06	-0.000E+00	-5.513E+06	-0.000E+00	 6.244E+08	-0.000E+00	 6.236E+06	-0.000E+00	-5.513E+06	-0.000E+00	 2.422E+08	-0.000E+00	 8.172E+06	-0.000E+00	-5.513E+06	-0.000E+00	-1.928E+08	-0.000E+00
    0.0300	 2.703E-07	-0.000E+00	-2.378E-07	 0.000E+00	 1.191E-07	 0.000E+00	 9.864E-01	 0.000E+00	-3.359E-03	 0.000E+00	 7.908E-01	 0.000E+00	 8.214E+06	-0.000E+00	-8.140E+06	-0.000E+00	 6.241E+08	-0.000E+00	 6.494E+06	-0.000E+00	-8.140E+06	-0.000E+00	 2.369E+08	-0.000E+00	 8.214E+06	-0.000E+00	-8.140E+06	-0.000E+00	-1.974E+08	-0.000E+00
    0.0400	 1.744E-07	-0.000E+00	-2.243E-07	 0.000E+00	 6.438E-08	 0.000E+00	 9.733E-01	 0.000E+00	-3.175E-03	 0.000E+00	 7.702E-01	 0.000E+00	 8.559E+06	-0.000E+00	-7.706E+06	-0.000E+00	 6.279E+08	-0.000E+00	 6.574E+06	-0.000E+00	-7.706E+06	-0.000E+00	 2.270E+08	-0.000E+00	 8.559E+06	-0.000E+00	-7.706E+06	-0.000E+00	-2.280E+08	-0.000E+00
    0.0500	 3.035E-07	-0.000E+00	-1.066E-07	 0.000E+00	 1.602E-07	 0.000E+00	 9.583E-01	 0.000E+00	-1.873E-03	 0.000E+00	 7.558E-01	 0.000E+00	 9.169E+06	-0.000E+00	-4.629E+06	-0.000E+00	 6.349E+08	-0.000E+00	 6.467E+06	-0.000E+00	-4.629E+06	-0.000E+00	 2.136E+08	-0.000E+00	 9.169E+06	-0.000E+00	-4.629E+06	-0.000E+00	-2.820E+08	-0.000E+00
    0.0600	 2.725E-07	-0.000E+00	 1.126E-08	 0.000E+00	 1.595E-07	 0.000E+00	 9.405E-01	 0.000E+00	-5.069E-04	 0.000E+00	 7.364E-01	 0.000E+00	 9.664E+06	-0.000E+00	-1.404E+06	-0.000E+00	 6.387E+08	-0.000E+00	 6.395E+06	-0.000E+00	-1.404E+06	-0.000E+00	 2.004E+08	-0.000E+00	 9.664E+06	-0.000E+00	-1.404E+06	-0.000E+00	-3.277E+08	-0.000E+00
    0.0700	 1.676E-07	-0.000E+00	 3.876E-08	 0.000E+00	 1.010E-07	 0.000E+00	 9.201E-01	 0.000E+00	-1.567E-04	 0.000E+00	 7.131E-01	 0.000E+00	 9.992E+06	-0.000E+00	-5.769E+05	-0.000E+00	 6.381E+08	-0.000E+00	 6.355E+06	-0.000E+00	-5.769E+05	-0.000E+00	 1.884E+08	-0.000E+00	 9.992E+06	-0.000E+00	-5.769E+05	-0.000E+00	-3.610E+08	-0.000E+00
    0.0800	 1.397E-07	-0.000E+00	-4.126E-08	 0.000E+00	 7.316E-08	 0.000E+00	 8.980E-01	 0.000E+00	-1.073E-03	 0.000E+00	 6.912E-01	 0.000E+00	 1.022E+07	-0.000E+00	-2.741E+06	-0.000E+00	 6.341E+08	-0.000E+00	 6.261E+06	-0.000E+00	-2.741E+06	-0.000E+00	 1.773E+08	-0.000E+00	 1.022E+07	-0.000E+00	-2.741E+06	-0.000E+00	-3.881E+08	-0.000E+00
    0.0900	 1.508E-07	-0.000E+00	-1.647E-07	 0.000E+00	 6.229E-08	 0.000E+00	 8.746E-01	 0.000E+00	-2.501E-03	 0.000E+00	 6.713E-01	 0.000E+00	 1.030E+07	-0.000E+00	-6.114E+06	-0.000E+00	 6.255E+08	-0.000E+00	 6.095E+06	-0.000E+00	-6.114E+06	-0.000E+00	 1.679E+08	-0.000E+00	 1.030E+07	-0.000E+00	-6.114E+06	-0.000E+00	-4.048E+08	-0.000E+00
    0.1000	 1.446E-07	-0.000E+00	-2.343E-07	 0.000E+00	 4.859E-08	 0.000E+00	 8.497E-01	 0.000E+00	-3.302E-03	 0.000E+00	 6.518E-01	 0.000E+00	 1.017E+07	-0.000E+00	-8.006E+06	-0.000E+00	 6.112E+08	-0.000E+00	 5.930E+06	-0.000E+00	-8.006E+06	-0.000E+00	 1.611E+08	-0.000E+00	 1.017E+07	-0.000E+00	-8.006E+06	-0.000E+00	-4.055E+08	-0.000E+00
    0.1100	 1.377E-07	-0.000E+00	-1.962E-07	 0.000E+00	 5.001E-08	 0.000E+00	 8.234E-01	 0.000E+00	-2.860E-03	 0.000E+00	 6.327E-01	 0.000E+00	 9.814E+06	-0.000E+00	-6.961E+06	-0.000E+00	 5.912E+08	-0.000E+00	 5.721E+06	-0.000E+00	-6.961E+06	-0.000E+00	 1.567E+08	-0.000E+00	 9.814E+06	-0.000E+00	-6.961E+06	-0.000E+00	-3.902E+08	-0.000E+00
    0.1200	 1.499E-07	-0.000E+00	-8.267E-08	 0.000E+00	 7.372E-08	 0.000E+00	 7.958E-01	 0.000E+00	-1.554E-03	 0.000E+00	 6.144E-01	 0.000E+00	 9.281E+06	-0.000E+00	-3.877E+06	-0.000E+00	 5.663E+08	-0.000E+00	 5.491E+06	-0.000E+00	-3.877E+06	-0.000E+00	 1.543E+08	-0.000E+00	 9.281E+06	-0.000E+00	-3.877E+06	-0.000E+00	-3.618E+08	-0.000E+00
    0.1300	 1.719E-07	-0.000E+00	 1.474E-08	 0.000E+00	 1.008E-07	 0.000E+00	 7.667E-01	 0.000E+00	-4.365E-04	 0.000E+00	 5.964E-01	 0.000E+00	 8.601E+06	-0.000E+00	-1.238E+06	-0.000E+00	 5.372E+08	-0.000E+00	 5.220E+06	-0.000E+00	-1.238E+06	-0.000E+00	 1.535E+08	-0.000E+00	 8.601E+06	-0.000E+00	-1.238E+06	-0.000E+00	-3.229E+08	-0.000E+00
    0.1400	 1.939E-07	-0.000E+00	 1.968E-08	 0.000E+00	 1.145E-07	 0.000E+00	 7.360E-01	 0.000E+00	-3.835E-04	 0.000E+00	 5.777E-01	 0.000E+00	 7.812E+06	-0.000E+00	-1.113E+06	-0.000E+00	 5.049E+08	-0.000E+00	 4.948E+06	-0.000E+00	-1.113E+06	-0.000E+00	 1.536E+08	-0.000E+00	 7.812E+06	-0.000E+00	-1.113E+06	-0.000E+00	-2.763E+08	-0.000E+00
    0.1500	 2.162E-07	-0.000E+00	-6.910E-08	 0.000E+00	 1.146E-07	 0.000E+00	 7.034E-01	 0.000E+00	-1.411E-03	 0.000E+00	 5.576E-01	 0.000E+00	 6.966E+06	-0.000E+00	-3.538E+06	-0.000E+00	 4.705E+08	-0.000E+00	 4.665E+06	-0.000E+00	-3.538E+06	-0.000E+00	 1.538E+08	-0.000E+00	 6.966E+06	-0.000E+00	-3.538E+06	-0.000E+00	-2.262E+08	-0.000E+00
    0.1600	 2.370E-07	-0.000E+00	-1.790E-07	 0.000E+00	 1.108E-07	 0.000E+00	 6.687E-01	 0.000E+00	-2.681E-03	 0.000E+00	 5.354E-01	 0.000E+00	 6.119E+06	-0.000E+00	-6.538E+06	-0.000E+00	 4.352E+08	-0.000E+00	 4.362E+06	-0.000E+00	-6.538E+06	-0.000E+00	 1.533E+08	-0.000E+00	 6.119E+06	-0.000E+00	-6.538E+06	-0.000E+00	-1.768E+08	-0.000E+00
    0.1700	 2.505E-07	-0.000E+00	-2.227E-07	 0.000E+00	 1.124E-07	 0.000E+00	 6.318E-01	 0.000E+00	-3.186E-03	 0.000E+00	 5.105E-01	 0.000E+00	 5.318E+06	-0.000E+00	-7.731E+06	-0.000E+00	 4.001E+08	-0.000E+00	 4.066E+06	-0.000E+00	-7.731E+06	-0.000E+00	 1.513E+08	-0.000E+00	 5.318E+06	-0.000E+00	-7.731E+06	-0.000E+00	-1.318E+08	-0.000E+00
    0.1800	 2.530E-07	-0.000E+00	-1.673E-07	 0.000E+00	 1.220E-07	 0.000E+00	 5.926E-01	 0.000E+00	-2.547E-03	 0.000E+00	 4.823E-01	 0.000E+00	 4.606E+06	-0.000E+00	-6.222E+06	-0.000E+00	 3.661E+08	-0.000E+00	 3.778E+06	-0.000E+00	-6.222E+06	-0.000E+00	 1.472E+08	-0.000E+00	 4.606E+06	-0.000E+00	-6.222E+06	-0.000E+00	-9.446E+07	-0.000E+00
    0.1900	 2.447E-07	-0.000E+00	-5.900E-08	 0.000E+00	 1.330E-07	 0.000E+00	 5.509E-01	 0.000E+00	-1.296E-03	 0.000E+00	 4.506E-01	 0.000E+00	 4.013E+06	-0.000E+00	-3.268E+06	-0.000E+00	 3.341E+08	-0.000E+00	 3.489E+06	-0.000E+00	-3.268E+06	-0.000E+00	 1.405E+08	-0.000E+00	 4.013E+06	-0.000E+00	-3.268E+06	-0.000E+00	-6.728E+07	-0.000E+00
    0.2000	 2.271E-07	-0.000E+00	 1.534E-08	 0.000E+00	 1.336E-07	 0.000E+00	 5.069E-01	 0.000E+00	-4.355E-04	 0.000E+00	 4.153E-01	 0.000E+00	 3.560E+06	-0.000E+00	-1.235E+06	-0.000E+00	 3.043E+08	-0.000E+00	 3.211E+06	-0.000E+00	-1.235E+06	-0.000E+00	 1.311E+08	-0.000E+00	 3.560E+06	-0.000E+00	-1.235E+06	-0.000E+00	-5.161E+07	-0.000E+00
    0.2100	 2.019E-07	-0.000E+00	-2.276E-09	 0.000E+00	 1.164E-07	 0.000E+00	 4.608E-01	 0.000E+00	-6.337E-04	 0.000E+00	 3.767E-01	 0.000E+00	 3.243E+06	-0.000E+00	-1.703E+06	-0.000E+00	 2.770E+08	-0.000E+00	 2.933E+06	-0.000E+00	-1.703E+06	-0.000E+00	 1.190E+08	-0.000E+00	 3.243E+06	-0.000E+00	-1.703E+06	-0.000E+00	-4.730E+07	-0.000E+00
    0.2200	 1.702E-07	-0.000E+00	-9.598E-08	 0.000E+00	 8.438E-08	 0.000E+00	 4.127E-01	 0.000E+00	-1.708E-03	 0.000E+00	 3.354E-01	 0.000E+00	 3.043E+06	-0.000E+00	-4.241E+06	-0.000E+00	 2.515E+08	-0.000E+00	 2.654E+06	-0.000E+00	-4.241E+06	-0.000E+00	 1.046E+08	-0.000E+00	 3.043E+06	-0.000E+00	-4.241E+06	-0.000E+00	-5.274E+07	-0.000E+00
    0.2300	 1.334E-07	-0.000E+00	-1.903E-07	 0.000E+00	 4.928E-08	 0.000E+00	 3.630E-01	 0.000E+00	-2.790E-03	 0.000E+00	 2.919E-01	 0.000E+00	 2.926E+06	-0.000E+00	-6.796E+06	-0.000E+00	 2.274E+08	-0.000E+00	 2.381E+06	-0.000E+00	-6.796E+06	-0.000E+00	 8.854E+07	-0.000E+00	 2.926E+06	-0.000E+00	-6.796E+06	-0.000E+00	-6.523E+07	-0.000E+00
    0.2400	 9.276E-08	-0.000E+00	-2.112E-07	 0.000E+00	 2.270E-08	 0.000E+00	 3.121E-01	 0.000E+00	-3.026E-03	 0.000E+00	 2.471E-01	 0.000E+00	 2.851E+06	-0.000E+00	-7.352E+06	-0.000E+00	 2.036E+08	-0.000E+00	 2.097E+06	-0.000E+00	-7.352E+06	-0.000E+00	 7.140E+07	-0.000E+00	 2.851E+06	-0.000E+00	-7.352E+06	-0.000E+00	-8.149E+07	-0.000E+00
    0.2500	 5.105E-08	-0.000E+00	-1.444E-07	 0.000E+00	 8.224E-09	 0.000E+00	 2.602E-01	 0.000E+00	-2.250E-03	 0.000E+00	 2.017E-01	 0.000E+00	 2.777E+06	-0.000E+00	-5.521E+06	-0.000E+00	 1.795E+08	-0.000E+00	 1.804E+06	-0.000E+00	-5.521E+06	-0.000E+00	 5.394E+07	-0.000E+00	 2.777E+06	-0.000E+00	-5.521E+06	-0.000E+00	-9.830E+07	-0.000E+00
    0.2600	 1.204E-08	-0.000E+00	-4.502E-08	 0.000E+00	 3.197E-11	 0.000E+00	 2.079E-01	 0.000E+00	-1.101E-03	 0.000E+00	 1.563E-01	 0.000E+00	 2.669E+06	-0.000E+00	-2.806E+06	-0.000E+00	 1.542E+08	-0.000E+00	 1.500E+06	-0.000E+00	-2.806E+06	-0.000E+00	 3.679E+07	-0.000E+00	 2.669E+06	-0.000E+00	-2.806E+06	-0.000E+00	-1.127E+08	-0.000E+00
    0.2700	-2.037E-08	-0.000E+00	 7.515E-09	 0.000E+00	-1.114E-08	 0.000E+00	 1.555E-01	 0.000E+00	-4.925E-04	 0.000E+00	 1.118E-01	 0.000E+00	 2.494E+06	-0.000E+00	-1.370E+06	-0.000E+00	 1.273E+08	-0.000E+00	 1.184E+06	-0.000E+00	-1.370E+06	-0.000E+00	 2.056E+07	-0.000E+00	 2.494E+06	-0.000E+00	-1.370E+06	-0.000E+00	-1.221E+08	-0.000E+00
    0.2800	-4.381E-08	-0.000E+00	-2.724E-08	 0.000E+00	-2.977E-08	 0.000E+00	 1.032E-01	 0.000E+00	-8.922E-04	 0.000E+00	 6.865E-02	 0.000E+00	 2.221E+06	-0.000E+00	-2.314E+06	-0.000E+00	 9.799E+07	-0.000E+00	 8.502E+05	-0.000E+00	-2.314E+06	-0.000E+00	 5.762E+06	-0.000E+00	 2.221E+06	-0.000E+00	-2.314E+06	-0.000E+00	-1.241E+08	-0.000E+00
    0.2900	-5.828E-08	-0.000E+00	-1.198E-07	 0.000E+00	-5.154E-08	 0.000E+00	 5.134E-02	 0.000E+00	-1.959E-03	 0.000E+00	 2.728E-02	 0.000E+00	 1.828E+06	-0.000E+00	-4.834E+06	-0.000E+00	 6.596E+07	-0.000E+00	 5.002E+05	-0.000E+00	-4.834E+06	-0.000E+00	-7.190E+06	-0.000E+00	 1.828E+06	-0.000E+00	-4.834E+06	-0.000E+00	-1.168E+08	-0.000E+00
    0.3000	-6.553E-08	-0.000E+00	-1.958E-07	 0.000E+00	-6.666E-08	 0.000E+00	 7.376E-06	 0.000E+00	-2.836E-03	 0.000E+00	-1.221E-02	 0.000E+00	 1.301E+06	-0.000E+00	-6.905E+06	-0.000E+00	 3.095E+07	-0.000E+00	 1.367E+05	-0.000E+00	-6.905E+06	-0.000E+00	-1.809E+07	-0.000E+00	 1.301E+06	-0.000E+00	-6.905E+06	-0.000E+00	-9.912E+07	-0.000E+00
    0.3100	-6.762E-08	-0.000E+00	-1.956E-07	 0.000E+00	-6.770E-08	 0.000E+00	-5.071E-02	 0.000E+00	-2.836E-03	 0.000E+00	-4.997E-02	 0.000E+00	 6.472E+05	-0.000E+00	-6.903E+06	-0.000E+00	-6.803E+06	-0.000E+00	-2.374E+05	-0.000E+00	-6.903E+06	-0.000E+00	-2.701E+07	-0.000E+00	 6.472E+05	-0.000E+00	-6.903E+06	-0.000E+00	-7.152E+07	-0.000E+00
    0.3200	-6.578E-08	-0.000E+00	-1.213E-07	 0.000E+00	-5.568E-08	 0.000E+00	-1.008E-01	 0.000E+00	-1.980E-03	 0.000E+00	-8.633E-02	 0.000E+00	-1.068E+05	-0.000E+00	-4.882E+06	-0.000E+00	-4.665E+07	-0.000E+00	-6.159E+05	-0.000E+00	-4.882E+06	-0.000E+00	-3.431E+07	-0.000E+00	-1.068E+05	-0.000E+00	-4.882E+06	-0.000E+00	-3.596E+07	-0.000E+00
    0.3300	-6.052E-08	-0.000E+00	-3.313E-08	 0.000E+00	-3.971E-08	 0.000E+00	-1.503E-01	 0.000E+00	-9.649E-04	 0.000E+00	-1.217E-01	 0.000E+00	-9.227E+05	-0.000E+00	-2.486E+06	-0.000E+00	-8.766E+07	-0.000E+00	-9.948E+05	-0.000E+00	-2.486E+06	-0.000E+00	-4.053E+07	-0.000E+00	-9.227E+05	-0.000E+00	-2.486E+06	-0.000E+00	 4.603E+06	-0.000E+00
    0.3400	-5.270E-08	-0.000E+00	-9.058E-10	 0.000E+00	-3.040E-08	 0.000E+00	-1.991E-01	 0.000E+00	-5.951E-04	 0.000E+00	-1.565E-01	 0.000E+00	-1.759E+06	-0.000E+00	-1.612E+06	-0.000E+00	-1.289E+08	-0.000E+00	-1.369E+06	-0.000E+00	-1.612E+06	-0.000E+00	-4.628E+07	-0.000E+00	-1.759E+06	-0.000E+00	-1.612E+06	-0.000E+00	 4.704E+07	-0.000E+00
    0.3500	-4.448E-08	-0.000E+00	-4.856E-08	 0.000E+00	-3.246E-08	 0.000E+00	-2.475E-01	 0.000E+00	-1.146E-03	 0.000E+00	-1.910E-01	 0.000E+00	-2.582E+06	-0.000E+00	-2.914E+06	-0.000E+00	-1.696E+08	-0.000E+00	-1.738E+06	-0.000E+00	-2.914E+06	-0.000E+00	-5.203E+07	-0.000E+00	-2.582E+06	-0.000E+00	-2.914E+06	-0.000E+00	 8.867E+07	-0.000E+00
    0.3600	-3.918E-08	-0.000E+00	-1.365E-07	 0.000E+00	-4.205E-08	 0.000E+00	-2.955E-01	 0.000E+00	-2.161E-03	 0.000E+00	-2.258E-01	 0.000E+00	-3.364E+06	-0.000E+00	-5.310E+06	-0.000E+00	-2.090E+08	-0.000E+00	-2.098E+06	-0.000E+00	-5.310E+06	-0.000E+00	-5.823E+07	-0.000E+00	-3.364E+06	-0.000E+00	-5.310E+06	-0.000E+00	 1.274E+08	-0.000E+00
    0.3700	-4.006E-08	-0.000E+00	-1.942E-07	 0.000E+00	-5.082E-08	 0.000E+00	-3.430E-01	 0.000E+00	-2.827E-03	 0.000E+00	-2.610E-01	 0.000E+00	-4.082E+06	-0.000E+00	-6.884E+06	-0.000E+00	-2.467E+08	-0.000E+00	-2.443E+06	-0.000E+00	-6.884E+06	-0.000E+00	-6.520E+07	-0.000E+00	-4.082E+06	-0.000E+00	-6.884E+06	-0.000E+00	 1.614E+08	-0.000E+00
    0.3800	-4.883E-08	-0.000E+00	-1.769E-07	 0.000E+00	-5.330E-08	 0.000E+00	-3.902E-01	 0.000E+00	-2.629E-03	 0.000E+00	-2.970E-01	 0.000E+00	-4.711E+06	-0.000E+00	-6.416E+06	-0.000E+00	-2.821E+08	-0.000E+00	-2.769E+06	-0.000E+00	-6.416E+06	-0.000E+00	-7.327E+07	-0.000E+00	-4.711E+06	-0.000E+00	-6.416E+06	-0.000E+00	 1.890E+08	-0.000E+00
    0.3900	-6.502E-08	-0.000E+00	-1.000E-07	 0.000E+00	-5.147E-08	 0.000E+00	-4.369E-01	 0.000E+00	-1.743E-03	 0.000E+00	-3.339E-01	 0.000E+00	-5.230E+06	-0.000E+00	-4.323E+06	-0.000E+00	-3.146E+08	-0.000E+00	-3.074E+06	-0.000E+00	-4.323E+06	-0.000E+00	-8.271E+07	-0.000E+00	-5.230E+06	-0.000E+00	-4.323E+06	-0.000E+00	 2.084E+08	-0.000E+00
    0.4000	-8.663E-08	-0.000E+00	-2.555E-08	 0.000E+00	-5.318E-08	 0.000E+00	-4.829E-01	 0.000E+00	-8.853E-04	 0.000E+00	-3.715E-01	 0.000E+00	-5.627E+06	-0.000E+00	-2.298E+06	-0.000E+00	-3.439E+08	-0.000E+00	-3.365E+06	-0.000E+00	-2.298E+06	-0.000E+00	-9.363E+07	-0.000E+00	-5.627E+06	-0.000E+00	-2.298E+06	-0.000E+00	 2.189E+08	-0.000E+00
    0.4100	-1.114E-07	-0.000E+00	-1.207E-08	 0.000E+00	-6.566E-08	 0.000E+00	-5.282E-01	 0.000E+00	-7.314E-04	 0.000E+00	-4.094E-01	 0.000E+00	-5.907E+06	-0.000E+00	-1.934E+06	-0.000E+00	-3.700E+08	-0.000E+00	-3.629E+06	-0.000E+00	-1.934E+06	-0.000E+00	-1.059E+08	-0.000E+00	-5.907E+06	-0.000E+00	-1.934E+06	-0.000E+00	 2.207E+08	-0.000E+00
    0.4200	-1.382E-07	-0.000E+00	-6.863E-08	 0.000E+00	-8.942E-08	 0.000E+00	-5.723E-01	 0.000E+00	-1.385E-03	 0.000E+00	-4.471E-01	 0.000E+00	-6.094E+06	-0.000E+00	-3.479E+06	-0.000E+00	-3.935E+08	-0.000E+00	-3.886E+06	-0.000E+00	-3.479E+06	-0.000E+00	-1.190E+08	-0.000E+00	-6.094E+06	-0.000E+00	-3.479E+06	-0.000E+00	 2.159E+08	-0.000E+00
    0.4300	-1.664E-07	-0.000E+00	-1.488E-07	 0.000E+00	-1.174E-07	 0.000E+00	-6.151E-01	 0.000E+00	-2.312E-03	 0.000E+00	-4.840E-01	 0.000E+00	-6.223E+06	-0.000E+00	-5.667E+06	-0.000E+00	-4.151E+08	-0.000E+00	-4.145E+06	-0.000E+00	-5.667E+06	-0.000E+00	-1.325E+08	-0.000E+00	-6.223E+06	-0.000E+00	-5.667E+06	-0.000E+00	 2.072E+08	-0.000E+00
    0.4400	-1.957E-07	-0.000E+00	-1.886E-07	 0.000E+00	-1.402E-07	 0.000E+00	-6.563E-01	 0.000E+00	-2.774E-03	 0.000E+00	-5.196E-01	 0.000E+00	-6.330E+06	-0.000E+00	-6.757E+06	-0.000E+00	-4.354E+08	-0.000E+00	-4.377E+06	-0.000E+00	-6.757E+06	-0.000E+00	-1.457E+08	-0.000E+00	-6.330E+06	-0.000E+00	-6.757E+06	-0.000E+00	 1.976E+08	-0.000E+00
    0.4500	-2.244E-07	-0.000E+00	-1.575E-07	 0.000E+00	-1.523E-07	 0.000E+00	-6.957E-01	 0.000E+00	-2.418E-03	 0.000E+00	-5.535E-01	 0.000E+00	-6.442E+06	-0.000E+00	-5.916E+06	-0.000E+00	-4.551E+08	-0.000E+00	-4.612E+06	-0.000E+00	-5.916E+06	-0.000E+00	-1.582E+08	-0.000E+00	-6.442E+06	-0.000E+00	-5.916E+06	-0.000E+00	 1.891E+08	-0.000E+00
    0.4600	-2.497E-07	-0.000E+00	-8.159E-08	 0.000E+00	-1.559E-07	 0.000E+00	-7.329E-01	 0.000E+00	-1.545E-03	 0.000E+00	-5.852E-01	 0.000E+00	-6.576E+06	-0.000E+00	-3.855E+06	-0.000E+00	-4.744E+08	-0.000E+00	-4.823E+06	-0.000E+00	-3.855E+06	-0.000E+00	-1.696E+08	-0.000E+00	-6.576E+06	-0.000E+00	-3.855E+06	-0.000E+00	 1.831E+08	-0.000E+00
    0.4700	-2.686E-07	-0.000E+00	-2.161E-08	 0.000E+00	-1.581E-07	 0.000E+00	-7.677E-01	 0.000E+00	-8.561E-04	 0.000E+00	-6.143E-01	 0.000E+00	-6.742E+06	-0.000E+00	-2.229E+06	-0.000E+00	-4.935E+08	-0.000E+00	-5.040E+06	-0.000E+00	-2.229E+06	-0.000E+00	-1.797E+08	-0.000E+00	-6.742E+06	-0.000E+00	-2.229E+06	-0.000E+00	 1.806E+08	-0.000E+00
    0.4800	-2.796E-07	-0.000E+00	-2.432E-08	 0.000E+00	-1.649E-07	 0.000E+00	-8.000E-01	 0.000E+00	-8.901E-04	 0.000E+00	-6.404E-01	 0.000E+00	-6.953E+06	-0.000E+00	-2.309E+06	-0.000E+00	-5.127E+08	-0.000E+00	-5.251E+06	-0.000E+00	-2.309E+06	-0.000E+00	-1.882E+08	-0.000E+00	-6.953E+06	-0.000E+00	-2.309E+06	-0.000E+00	 1.827E+08	-0.000E+00
    0.4900	-2.833E-07	-0.000E+00	-8.589E-08	 0.000E+00	-1.759E-07	 0.000E+00	-8.296E-01	 0.000E+00	-1.602E-03	 0.000E+00	-6.635E-01	 0.000E+00	-7.225E+06	-0.000E+00	-3.991E+06	-0.000E+00	-5.321E+08	-0.000E+00	-5.463E+06	-0.000E+00	-3.991E+06	-0.000E+00	-1.949E+08	-0.000E+00	-7.225E+06	-0.000E+00	-3.991E+06	-0.000E+00	 1.904E+08	-0.000E+00
    0.5000	-2.818E-07	-0.000E+00	-1.562E-07	 0.000E+00	-1.852E-07	 0.000E+00	-8.566E-01	 0.000E+00	-2.415E-03	 0.000E+00	-6.833E-01	 0.000E+00	-7.566E+06	-0.000E+00	-5.909E+06	-0.000E+00	-5.520E+08	-0.000E+00	-5.671E+06	-0.000E+00	-5.909E+06	-0.000E+00	-1.998E+08	-0.000E+00	-7.566E+06	-0.000E+00	-5.909E+06	-0.000E+00	 2.046E+08	-0.000E+00
    0.5100	-2.774E-07	-0.000E+00	-1.795E-07	 0.000E+00	-1.859E-07	 0.000E+00	-8.808E-01	 0.000E+00	-2.684E-03	 0.000E+00	-7.004E-01	 0.000E+00	-7.970E+06	-0.000E+00	-6.545E+06	-0.000E+00	-5.723E+08	-0.000E+00	-5.863E+06	-0.000E+00	-6.545E+06	-0.000E+00	-2.027E+08	-0.000E+00	-7.970E+06	-0.000E+00	-6.545E+06	-0.000E+00	 2.247E+08	-0.000E+00
    0.5200	-2.713E-07	-0.000E+00	-1.384E-07	 0.000E+00	-1.763E-07	 0.000E+00	-9.024E-01	 0.000E+00	-2.211E-03	 0.000E+00	-7.149E-01	 0.000E+00	-8.413E+06	-0.000E+00	-5.429E+06	-0.000E+00	-5.923E+08	-0.000E+00	-6.043E+06	-0.000E+00	-5.429E+06	-0.000E+00	-2.042E+08	-0.000E+00	-8.413E+06	-0.000E+00	-5.429E+06	-0.000E+00	 2.490E+08	-0.000E+00
    0.5300	-2.635E-07	-0.000E+00	-6.694E-08	 0.000E+00	-1.614E-07	 0.000E+00	-9.214E-01	 0.000E+00	-1.387E-03	 0.000E+00	-7.272E-01	 0.000E+00	-8.860E+06	-0.000E+00	-3.483E+06	-0.000E+00	-6.112E+08	-0.000E+00	-6.204E+06	-0.000E+00	-3.483E+06	-0.000E+00	-2.048E+08	-0.000E+00	-8.860E+06	-0.000E+00	-3.483E+06	-0.000E+00	 2.747E+08	-0.000E+00
    0.5400	-2.542E-07	-0.000E+00	-2.208E-08	 0.000E+00	-1.494E-07	 0.000E+00	-9.379E-01	 0.000E+00	-8.703E-04	 0.000E+00	-7.377E-01	 0.000E+00	-9.274E+06	-0.000E+00	-2.262E+06	-0.000E+00	-6.283E+08	-0.000E+00	-6.325E+06	-0.000E+00	-2.262E+06	-0.000E+00	-2.049E+08	-0.000E+00	-9.274E+06	-0.000E+00	-2.262E+06	-0.000E+00	 2.991E+08	-0.000E+00
    0.5500	-2.444E-07	-0.000E+00	-3.857E-08	 0.000E+00	-1.461E-07	 0.000E+00	-9.520E-01	 0.000E+00	-1.061E-03	 0.000E+00	-7.467E-01	 0.000E+00	-9.634E+06	-0.000E+00	-2.712E+06	-0.000E+00	-6.430E+08	-0.000E+00	-6.457E+06	-0.000E+00	-2.712E+06	-0.000E+00	-2.049E+08	-0.000E+00	-9.634E+06	-0.000E+00	-2.712E+06	-0.000E+00	 3.204E+08	-0.000E+00
    0.5600	-2.365E-07	-0.000E+00	-1.019E-07	 0.000E+00	-1.507E-07	 0.000E+00	-9.637E-01	 0.000E+00	-1.791E-03	 0.000E+00	-7.542E-01	 0.000E+00	-9.926E+06	-0.000E+00	-4.436E+06	-0.000E+00	-6.550E+08	-0.000E+00	-6.557E+06	-0.000E+00	-4.436E+06	-0.000E+00	-2.050E+08	-0.000E+00	-9.926E+06	-0.000E+00	-4.436E+06	-0.000E+00	 3.376E+08	-0.000E+00
    0.5700	-2.330E-07	-0.000E+00	-1.610E-07	 0.000E+00	-1.572E-07	 0.000E+00	-9.731E-01	 0.000E+00	-2.472E-03	 0.000E+00	-7.606E-01	 0.000E+00	-1.014E+07	-0.000E+00	-6.045E+06	-0.000E+00	-6.643E+08	-0.000E+00	-6.625E+06	-0.000E+00	-6.045E+06	-0.000E+00	-2.053E+08	-0.000E+00	-1.014E+07	-0.000E+00	-6.045E+06	-0.000E+00	 3.502E+08	-0.000E+00
    0.5800	-2.352E-07	-0.000E+00	-1.693E-07	 0.000E+00	-1.596E-07	 0.000E+00	-9.803E-01	 0.000E+00	-2.568E-03	 0.000E+00	-7.660E-01	 0.000E+00	-1.028E+07	-0.000E+00	-6.272E+06	-0.000E+00	-6.706E+08	-0.000E+00	-6.678E+06	-0.000E+00	-6.272E+06	-0.000E+00	-2.060E+08	-0.000E+00	-1.028E+07	-0.000E+00	-6.272E+06	-0.000E+00	 3.577E+08	-0.000E+00
    0.5900	-2.422E-07	-0.000E+00	-1.215E-07	 0.000E+00	-1.567E-07	 0.000E+00	-9.853E-01	 0.000E+00	-2.018E-03	 0.000E+00	-7.704E-01	 0.000E+00	-1.033E+07	-0.000E+00	-4.972E+06	-0.000E+00	-6.738E+08	-0.000E+00	-6.694E+06	-0.000E+00	-4.972E+06	-0.000E+00	-2.071E+08	-0.000E+00	-1.033E+07	-0.000E+00	-4.972E+06	-0.000E+00	 3.592E+08	-0.000E+00
    0.6000	-2.520E-07	-0.000E+00	-5.660E-08	 0.000E+00	-1.531E-07	 0.000E+00	-9.879E-01	 0.000E+00	-1.270E-03	 0.000E+00	-7.739E-01	 0.000E+00	-1.028E+07	-0.000E+00	-3.207E+06	-0.000E+00	-6.735E+08	-0.000E+00	-6.701E+06	-0.000E+00	-3.207E+06	-0.000E+00	-2.088E+08	-0.000E+00	-1.028E+07	-0.000E+00	-3.207E+06	-0.000E+00	 3.543E+08	-0.000E+00
    0.6100	-2.625E-07	-0.000E+00	-2.617E-08	 0.000E+00	-1.548E-07	 0.000E+00	-9.881E-01	 0.000E+00	-9.204E-04	 0.000E+00	-7.760E-01	 0.000E+00	-1.013E+07	-0.000E+00	-2.381E+06	-0.000E+00	-6.700E+08	-0.000E+00	-6.667E+06	-0.000E+00	-2.381E+06	-0.000E+00	-2.110E+08	-0.000E+00	-1.013E+07	-0.000E+00	-2.381E+06	-0.000E+00	 3.432E+08	-0.000E+00
    0.6200	-2.724E-07	-0.000E+00	-5.330E-08	 0.000E+00	-1.646E-07	 0.000E+00	-9.858E-01	 0.000E+00	-1.234E-03	 0.000E+00	-7.764E-01	 0.000E+00	-9.912E+06	-0.000E+00	-3.121E+06	-0.000E+00	-6.637E+08	-0.000E+00	-6.624E+06	-0.000E+00	-3.121E+06	-0.000E+00	-2.132E+08	-0.000E+00	-9.912E+06	-0.000E+00	-3.121E+06	-0.000E+00	 3.275E+08	-0.000E+00
    0.6300	-2.817E-07	-0.000E+00	-1.152E-07	 0.000E+00	-1.790E-07	 0.000E+00	-9.809E-01	 0.000E+00	-1.948E-03	 0.000E+00	-7.747E-01	 0.000E+00	-9.650E+06	-0.000E+00	-4.807E+06	-0.000E+00	-6.553E+08	-0.000E+00	-6.563E+06	-0.000E+00	-4.807E+06	-0.000E+00	-2.151E+08	-0.000E+00	-9.650E+06	-0.000E+00	-4.807E+06	-0.000E+00	 3.097E+08	-0.000E+00
    0.6400	-2.905E-07	-0.000E+00	-1.621E-07	 0.000E+00	-1.909E-07	 0.000E+00	-9.733E-01	 0.000E+00	-2.489E-03	 0.000E+00	-7.707E-01	 0.000E+00	-9.375E+06	-0.000E+00	-6.086E+06	-0.000E+00	-6.454E+08	-0.000E+00	-6.495E+06	-0.000E+00	-6.086E+06	-0.000E+00	-2.163E+08	-0.000E+00	-9.375E+06	-0.000E+00	-6.086E+06	-0.000E+00	 2.921E+08	-0.000E+00
    0.6500	-2.980E-07	-0.000E+00	-1.574E-07	 0.000E+00	-1.946E-07	 0.000E+00	-9.629E-01	 0.000E+00	-2.435E-03	 0.000E+00	-7.641E-01	 0.000E+00	-9.109E+06	-0.000E+00	-5.958E+06	-0.000E+00	-6.346E+08	-0.000E+00	-6.409E+06	-0.000E+00	-5.958E+06	-0.000E+00	-2.163E+08	-0.000E+00	-9.109E+06	-0.000E+00	-5.958E+06	-0.000E+00	 2.763E+08	-0.000E+00
    0.6600	-3.025E-07	-0.000E+00	-1.061E-07	 0.000E+00	-1.898E-07	 0.000E+00	-9.497E-01	 0.000E+00	-1.843E-03	 0.000E+00	-7.549E-01	 0.000E+00	-8.859E+06	-0.000E+00	-4.560E+06	-0.000E+00	-6.229E+08	-0.000E+00	-6.294E+06	-0.000E+00	-4.560E+06	-0.000E+00	-2.150E+08	-0.000E+00	-8.859E+06	-0.000E+00	-4.560E+06	-0.000E+00	 2.630E+08	-0.000E+00
    0.6700	-3.020E-07	-0.000E+00	-4.980E-08	 0.000E+00	-1.813E-07	 0.000E+00	-9.336E-01	 0.000E+00	-1.193E-03	 0.000E+00	-7.428E-01	 0.000E+00	-8.627E+06	-0.000E+00	-3.024E+06	-0.000E+00	-6.104E+08	-0.000E+00	-6.183E+06	-0.000E+00	-3.024E+06	-0.000E+00	-2.125E+08	-0.000E+00	-8.627E+06	-0.000E+00	-3.024E+06	-0.000E+00	 2.523E+08	-0.000E+00
    0.6800	-2.953E-07	-0.000E+00	-3.308E-08	 0.000E+00	-1.751E-07	 0.000E+00	-9.146E-01	 0.000E+00	-9.987E-04	 0.000E+00	-7.278E-01	 0.000E+00	-8.417E+06	-0.000E+00	-2.565E+06	-0.000E+00	-5.972E+08	-0.000E+00	-6.065E+06	-0.000E+00	-2.565E+06	-0.000E+00	-2.087E+08	-0.000E+00	-8.417E+06	-0.000E+00	-2.565E+06	-0.000E+00	 2.445E+08	-0.000E+00
    0.6900	-2.832E-07	-0.000E+00	-6.827E-08	 0.000E+00	-1.732E-07	 0.000E+00	-8.928E-01	 0.000E+00	-1.403E-03	 0.000E+00	-7.100E-01	 0.000E+00	-8.235E+06	-0.000E+00	-3.519E+06	-0.000E+00	-5.835E+08	-0.000E+00	-5.930E+06	-0.000E+00	-3.519E+06	-0.000E+00	-2.034E+08	-0.000E+00	-8.235E+06	-0.000E+00	-3.519E+06	-0.000E+00	 2.400E+08	-0.000E+00
    0.7000	-2.675E-07	-0.000E+00	-1.265E-07	 0.000E+00	-1.726E-07	 0.000E+00	-8.683E-01	 0.000E+00	-2.072E-03	 0.000E+00	-6.894E-01	 0.000E+00	-8.084E+06	-0.000E+00	-5.099E+06	-0.000E+00	-5.694E+08	-0.000E+00	-5.787E+06	-0.000E+00	-5.099E+06	-0.000E+00	-1.968E+08	-0.000E+00	-8.084E+06	-0.000E+00	-5.099E+06	-0.000E+00	 2.391E+08	-0.000E+00
    0.7100	-2.504E-07	-0.000E+00	-1.614E-07	 0.000E+00	-1.677E-07	 0.000E+00	-8.413E-01	 0.000E+00	-2.472E-03	 0.000E+00	-6.663E-01	 0.000E+00	-7.962E+06	-0.000E+00	-6.044E+06	-0.000E+00	-5.548E+08	-0.000E+00	-5.626E+06	-0.000E+00	-6.044E+06	-0.000E+00	-1.888E+08	-0.000E+00	-7.962E+06	-0.000E+00	-6.044E+06	-0.000E+00	 2.414E+08	-0.000E+00
    0.7200	-2.329E-07	-0.000E+00	-1.462E-07	 0.000E+00	-1.553E-07	 0.000E+00	-8.118E-01	 0.000E+00	-2.294E-03	 0.000E+00	-6.412E-01	 0.000E+00	-7.852E+06	-0.000E+00	-5.624E+06	-0.000E+00	-5.395E+08	-0.000E+00	-5.443E+06	-0.000E+00	-5.624E+06	-0.000E+00	-1.798E+08	-0.000E+00	-7.852E+06	-0.000E+00	-5.624E+06	-0.000E+00	 2.458E+08	-0.000E+00
    0.7300	-2.153E-07	-0.000E+00	-9.427E-08	 0.000E+00	-1.375E-07	 0.000E+00	-7.802E-01	 0.000E+00	-1.692E-03	 0.000E+00	-6.144E-01	 0.000E+00	-7.730E+06	-0.000E+00	-4.203E+06	-0.000E+00	-5.228E+08	-0.000E+00	-5.259E+06	-0.000E+00	-4.203E+06	-0.000E+00	-1.703E+08	-0.000E+00	-7.730E+06	-0.000E+00	-4.203E+06	-0.000E+00	 2.502E+08	-0.000E+00
    0.7400	-1.973E-07	-0.000E+00	-4.762E-08	 0.000E+00	-1.204E-07	 0.000E+00	-7.465E-01	 0.000E+00	-1.152E-03	 0.000E+00	-5.862E-01	 0.000E+00	-7.569E+06	-0.000E+00	-2.927E+06	-0.000E+00	-5.043E+08	-0.000E+00	-5.050E+06	-0.000E+00	-2.927E+06	-0.000E+00	-1.605E+08	-0.000E+00	-7.569E+06	-0.000E+00	-2.927E+06	-0.000E+00	 2.526E+08	-0.000E+00
    0.7500	-1.795E-07	-0.000E+00	-4.307E-08	 0.000E+00	-1.094E-07	 0.000E+00	-7.109E-01	 0.000E+00	-1.097E-03	 0.000E+00	-5.569E-01	 0.000E+00	-7.355E+06	-0.000E+00	-2.798E+06	-0.000E+00	-4.838E+08	-0.000E+00	-4.817E+06	-0.000E+00	-2.798E+06	-0.000E+00	-1.508E+08	-0.000E+00	-7.355E+06	-0.000E+00	-2.798E+06	-0.000E+00	 2.518E+08	-0.000E+00
    0.7600	-1.632E-07	-0.000E+00	-8.334E-08	 0.000E+00	-1.058E-07	 0.000E+00	-6.735E-01	 0.000E+00	-1.560E-03	 0.000E+00	-5.266E-01	 0.000E+00	-7.082E+06	-0.000E+00	-3.890E+06	-0.000E+00	-4.610E+08	-0.000E+00	-4.583E+06	-0.000E+00	-3.890E+06	-0.000E+00	-1.413E+08	-0.000E+00	-7.082E+06	-0.000E+00	-3.890E+06	-0.000E+00	 2.471E+08	-0.000E+00
    0.7700	-1.498E-07	-0.000E+00	-1.357E-07	 0.000E+00	-1.057E-07	 0.000E+00	-6.346E-01	 0.000E+00	-2.162E-03	 0.000E+00	-4.956E-01	 0.000E+00	-6.750E+06	-0.000E+00	-5.312E+06	-0.000E+00	-4.362E+08	-0.000E+00	-4.312E+06	-0.000E+00	-5.312E+06	-0.000E+00	-1.321E+08	-0.000E+00	-6.750E+06	-0.000E+00	-5.312E+06	-0.000E+00	 2.388E+08	-0.000E+00
    0.7800	-1.402E-07	-0.000E+00	-1.587E-07	 0.000E+00	-1.036E-07	 0.000E+00	-5.943E-01	 0.000E+00	-2.425E-03	 0.000E+00	-4.640E-01	 0.000E+00	-6.361E+06	-0.000E+00	-5.935E+06	-0.000E+00	-4.094E+08	-0.000E+00	-4.042E+06	-0.000E+00	-5.935E+06	-0.000E+00	-1.232E+08	-0.000E+00	-6.361E+06	-0.000E+00	-5.935E+06	-0.000E+00	 2.267E+08	-0.000E+00
    0.7900	-1.341E-07	-0.000E+00	-1.351E-07	 0.000E+00	-9.663E-08	 0.000E+00	-5.526E-01	 0.000E+00	-2.151E-03	 0.000E+00	-4.318E-01	 0.000E+00	-5.914E+06	-0.000E+00	-5.286E+06	-0.000E+00	-3.806E+08	-0.000E+00	-3.754E+06	-0.000E+00	-5.286E+06	-0.000E+00	-1.145E+08	-0.000E+00	-5.914E+06	-0.000E+00	-5.286E+06	-0.000E+00	 2.109E+08	-0.000E+00
    0.8000	-1.298E-07	-0.000E+00	-8.467E-08	 0.000E+00	-8.691E-08	 0.000E+00	-5.096E-01	 0.000E+00	-1.568E-03	 0.000E+00	-3.991E-01	 0.000E+00	-5.411E+06	-0.000E+00	-3.909E+06	-0.000E+00	-3.498E+08	-0.000E+00	-3.449E+06	-0.000E+00	-3.909E+06	-0.000E+00	-1.063E+08	-0.000E+00	-5.411E+06	-0.000E+00	-3.909E+06	-0.000E+00	 1.913E+08	-0.000E+00
    0.8100	-1.257E-07	-0.000E+00	-4.802E-08	 0.000E+00	-7.931E-08	 0.000E+00	-4.654E-01	 0.000E+00	-1.144E-03	 0.000E+00	-3.657E-01	 0.000E+00	-4.857E+06	-0.000E+00	-2.908E+06	-0.000E+00	-3.174E+08	-0.000E+00	-3.128E+06	-0.000E+00	-2.908E+06	-0.000E+00	-9.825E+07	-0.000E+00	-4.857E+06	-0.000E+00	-2.908E+06	-0.000E+00	 1.683E+08	-0.000E+00
    0.8200	-1.207E-07	-0.000E+00	-5.382E-08	 0.000E+00	-7.732E-08	 0.000E+00	-4.200E-01	 0.000E+00	-1.209E-03	 0.000E+00	-3.314E-01	 0.000E+00	-4.267E+06	-0.000E+00	-3.062E+06	-0.000E+00	-2.836E+08	-0.000E+00	-2.800E+06	-0.000E+00	-3.062E+06	-0.000E+00	-9.030E+07	-0.000E+00	-4.267E+06	-0.000E+00	-3.062E+06	-0.000E+00	 1.431E+08	-0.000E+00
    0.8300	-1.144E-07	-0.000E+00	-9.654E-08	 0.000E+00	-7.999E-08	 0.000E+00	-3.734E-01	 0.000E+00	-1.700E-03	 0.000E+00	-2.962E-01	 0.000E+00	-3.663E+06	-0.000E+00	-4.223E+06	-0.000E+00	-2.490E+08	-0.000E+00	-2.474E+06	-0.000E+00	-4.223E+06	-0.000E+00	-8.214E+07	-0.000E+00	-3.663E+06	-0.000E+00	-4.223E+06	-0.000E+00	 1.173E+08	-0.000E+00
    0.8400	-1.071E-07	-0.000E+00	-1.417E-07	 0.000E+00	-8.239E-08	 0.000E+00	-3.258E-01	 0.000E+00	-2.220E-03	 0.000E+00	-2.598E-01	 0.000E+00	-3.065E+06	-0.000E+00	-5.449E+06	-0.000E+00	-2.140E+08	-0.000E+00	-2.139E+06	-0.000E+00	-5.449E+06	-0.000E+00	-7.348E+07	-0.000E+00	-3.065E+06	-0.000E+00	-5.449E+06	-0.000E+00	 9.247E+07	-0.000E+00