
Predictions were generated on 25-Oct-2019 at 09:54:20 using OpenFAST, compiled as a 64-bit application using single precision at commit v2.1.0-185-gc75b8758-dirty
 linked with  NWTC Subroutine Library; ElastoDyn; HydroDyn; SubDyn

Description from the FAST input file: FAST Certification Test #21: NREL 5.0 MW Baseline Offshore Turbine with OC4 Jacket Configuration

Time      	TwrBsFxt  	TwrBsFyt  	TwrBsFzt  	TwrBsMxt  	TwrBsMyt  	TwrBsMzt  	PtfmSurge 	PtfmSway  	PtfmHeave 	PtfmRoll  	PtfmPitch 	PtfmYaw   	Wave1Elev 	HydroFxi  	HydroFyi  	HydroFzi  	HydroMxi  	HydroMyi  	HydroMzi  	M1N1FKZe  	M2N1FKZe  	M3N1MKXe  	M3N1MKYe  	M3N1FKZe  	M4N1MKXe  	M4N1MKYe  	M4N1FKZe  	M5N1MKXe  	M5N1MKYe  	M5N1FKZe  	M6N1MKXe  	M6N1MKYe  	M6N1FKZe  	M7N1FKZe  	-M8N1FKXe 	-M8N1FKYe 	-M8N1FKZe 	-M8N1MKXe 	-M8N1MKYe 	-M8N1MKZe 	-M9N1FKXe 	-M9N1FKYe 	-M9N1FKZe 	-M9N1MKXe 	-M9N1MKYe 	-M9N1MKZe 	ReactFXss 	ReactFYss 	ReactMXss 	ReactMYss 	ReactMZss 	ReactFZss 
(s)       	(kN)      	(kN)      	(kN)      	(kN-m)    	(kN-m)    	(kN-m)    	(m)       	(m)       	(m)       	(deg)     	(deg)     	(deg)     	(m)       	(N)       	(N)       	(N)       	(N-m)     	(N-m)     	(N-m)     	(N)       	(N)       	(N*m)     	(N*m)     	(N)       	(N*m)     	(N*m)     	(N)       	(N*m)     	(N*m)     	(N)       	(N*m)     	(N*m)     	(N)       	(N)       	(N)       	(N)       	(N)       	(N*m)     	(N*m)     	(N*m)     	(N)       	(N)       	(N)       	(N*m)     	(N*m)     	(N*m)     	(N)       	(N)       	(Nm)      	(Nm)      	(Nm)      	(N)       
    0.0000	 2.787E-04	 1.342E-07	 1.726E-05	-1.052E-05	 1.981E-02	-4.765E-07	 1.390E-01	 0.000E+00	 0.000E+00	 0.000E+00	 1.800E-01	 0.000E+00	 0.000E+00	 1.192E+05	-3.687E+03	 2.933E+06	-1.480E+05	-6.289E+05	 2.186E+04	 3.529E+06	-3.641E+06	 5.795E+04	-3.513E+04	 5.329E+05	 7.508E+04	-2.389E+02	 1.539E+06	-1.007E+05	-3.513E+04	-5.697E+05	-1.178E+05	-2.398E+02	-1.576E+06	-3.750E-01	-1.174E+06	 2.567E+05	-1.319E+07	-1.595E+06	-7.281E+06	-1.492E+05	-1.174E+06	-2.567E+05	 1.320E+07	 1.595E+06	-7.281E+06	-1.492E+05	-4.695E+06	 2.438E+00	-5.600E+01	-3.458E+08	-1.000E+01	 2.938E+04
    0.0100	 7.119E-05	 6.675E-09	 1.677E-06	-5.275E-07	 4.925E-03	 3.905E-08	 1.384E-01	-1.160E-07	-4.565E-04	 3.364E-06	 1.729E-01	-3.950E-07	 0.000E+00	-4.784E+05	-3.713E+03	 2.966E+06	-1.251E+05	 5.443E+06	 1.952E+04	 2.673E+06	-3.198E+06	 5.913E+04	-3.246E+04	 4.977E+05	 7.785E+04	-1.483E+03	 1.499E+06	-1.005E+05	-3.497E+04	-5.960E+05	-1.188E+05	 5.377E+02	-1.595E+06	 4.950E+03	-1.166E+06	 2.441E+05	-1.290E+07	-1.551E+06	-7.273E+06	-1.498E+05	-1.187E+06	-2.652E+05	 1.340E+07	 1.629E+06	-7.344E+06	-1.513E+05	-4.705E+06	-8.537E+02	 2.992E+03	-3.447E+08	 3.722E+03	 9.974E+05
    0.0200	-1.107E-04	-1.007E-07	-1.492E-05	 7.900E-06	-8.127E-03	 4.447E-07	 1.369E-01	-2.676E-07	-1.717E-03	 7.211E-06	 1.620E-01	-1.374E-06	 0.000E+00	-8.311E+05	-2.951E+03	 2.838E+06	-6.743E+04	 1.004E+07	 1.395E+04	 1.182E+06	-2.852E+06	 6.046E+04	-3.140E+04	 4.166E+05	 7.780E+04	-3.639E+03	 1.438E+06	-9.925E+04	-3.893E+04	-6.733E+05	-1.153E+05	 1.556E+03	-1.686E+06	 1.957E+04	-1.139E+06	 2.153E+05	-1.219E+07	-1.442E+06	-7.173E+06	-1.460E+05	-1.213E+06	-2.913E+05	 1.401E+07	 1.729E+06	-7.438E+06	-1.514E+05	-4.703E+06	-3.061E+03	 1.231E+04	-3.436E+08	 1.379E+04	 3.653E+06
    0.0300	-6.089E-05	-4.324E-08	-1.767E-05	 3.428E-06	-4.570E-03	 1.676E-07	 1.350E-01	-2.897E-07	-3.497E-03	 5.317E-06	 1.577E-01	-2.512E-06	 0.000E+00	-4.726E+05	-1.293E+03	 2.584E+06	 1.475E+03	 1.079E+07	 6.787E+03	 2.612E+05	-3.552E+06	 5.895E+04	-3.788E+04	 3.323E+05	 6.708E+04	-3.384E+03	 1.437E+06	-9.763E+04	-4.708E+04	-7.792E+05	-1.037E+05	-2.143E+02	-1.870E+06	 4.295E+04	-1.104E+06	 1.852E+05	-1.131E+07	-1.311E+06	-6.977E+06	-1.335E+05	-1.244E+06	-3.292E+05	 1.499E+07	 1.876E+06	-7.502E+06	-1.428E+05	-4.690E+06	-5.788E+03	 2.729E+04	-3.445E+08	 2.741E+04	 7.358E+06
    0.0400	 8.582E-05	 8.592E-08	-1.414E-05	-6.672E-06	 5.935E-03	-3.622E-07	 1.326E-01	-3.463E-07	-5.405E-03	 9.109E-07	 1.575E-01	-3.538E-06	 0.000E+00	 1.654E+05	 4.728E+02	 2.267E+06	 5.762E+04	 9.670E+06	-7.494E+02	-1.983E+05	-4.831E+06	 5.410E+04	-4.575E+04	 2.743E+05	 5.138E+04	 2.002E+03	 1.514E+06	-9.873E+04	-4.747E+04	-8.652E+05	-9.391E+04	-7.370E+03	-2.089E+06	 7.268E+04	-1.092E+06	 1.631E+05	-1.042E+07	-1.190E+06	-6.888E+06	-1.179E+05	-1.286E+06	-3.628E+05	 1.605E+07	 2.019E+06	-7.669E+06	-1.279E+05	-4.749E+06	-8.150E+03	 4.492E+04	-3.467E+08	 4.134E+04	 1.125E+07
    0.0500	 1.100E-04	 1.195E-07	-1.759E-05	-9.317E-06	 7.664E-03	-4.209E-07	 1.294E-01	-7.236E-07	-7.033E-03	 1.508E-06	 1.529E-01	-4.631E-06	 0.000E+00	 5.218E+05	 1.454E+03	 1.959E+06	 8.613E+04	 7.691E+06	-7.608E+03	-8.974E+05	-5.612E+06	 4.740E+04	-4.339E+04	 2.563E+05	 4.296E+04	 1.257E+04	 1.641E+06	-1.055E+05	-2.622E+04	-8.825E+05	-1.003E+05	-1.975E+04	-2.258E+06	 1.045E+05	-1.139E+06	 1.521E+05	-9.603E+06	-1.098E+06	-7.163E+06	-1.099E+05	-1.356E+06	-3.750E+05	 1.683E+07	 2.105E+06	-8.127E+06	-1.147E+05	-4.980E+06	-9.525E+03	 6.136E+04	-3.477E+08	 5.264E+04	 1.445E+07
    0.0600	 6.786E-06	 3.618E-08	-2.731E-05	-2.838E-06	 2.606E-04	 6.952E-08	 1.255E-01	-1.479E-06	-8.050E-03	 9.188E-06	 1.424E-01	-6.531E-06	 0.000E+00	 6.368E+05	 1.505E+03	 1.725E+06	 8.452E+04	 2.647E+06	-1.259E+04	-1.868E+06	-5.553E+06	 4.021E+04	-2.682E+04	 2.844E+05	 4.673E+04	 2.476E+04	 1.803E+06	-1.171E+05	 1.713E+04	-8.145E+05	-1.256E+05	-3.327E+04	-2.337E+06	 1.323E+05	-1.252E+06	 1.545E+05	-8.960E+06	-1.053E+06	-7.866E+06	-1.148E+05	-1.452E+06	-3.594E+05	 1.711E+07	 2.103E+06	-8.893E+06	-1.071E+05	-5.397E+06	-9.722E+03	 7.405E+04	-3.463E+08	 5.927E+04	 1.630E+07
    0.0700	-6.559E-05	-5.112E-08	-3.225E-05	 3.941E-06	-4.920E-03	 5.906E-07	 1.211E-01	-2.395E-06	-8.270E-03	 1.920E-05	 1.318E-01	-1.043E-05	 0.000E+00	 9.065E+05	 1.139E+03	 1.607E+06	 6.072E+04	-7.107E+06	-1.461E+04	-2.442E+06	-5.145E+06	 3.318E+04	-2.728E+03	 3.570E+05	 5.745E+04	 3.213E+04	 2.002E+06	-1.292E+05	 6.662E+04	-6.848E+05	-1.588E+05	-4.077E+04	-2.349E+06	 1.494E+05	-1.403E+06	 1.709E+05	-8.627E+06	-1.064E+06	-8.803E+06	-1.305E+05	-1.551E+06	-3.232E+05	 1.686E+07	 2.016E+06	-9.765E+06	-1.033E+05	-5.898E+06	-9.004E+03	 8.246E+04	-3.429E+08	 6.048E+04	 1.647E+07
    0.0800	-2.772E-05	-6.337E-08	-2.721E-05	 4.853E-06	-2.188E-03	 7.470E-07	 1.163E-01	-3.212E-06	-7.684E-03	 2.644E-05	 1.253E-01	-1.764E-05	 0.000E+00	 1.436E+06	 8.542E+02	 1.622E+06	 2.966E+04	-1.921E+07	-1.339E+04	-2.191E+06	-4.805E+06	 2.728E+04	 1.931E+04	 4.551E+05	 6.819E+04	 2.778E+04	 2.214E+06	-1.359E+05	 1.005E+05	-5.387E+05	-1.848E+05	-3.481E+04	-2.333E+06	 1.502E+05	-1.547E+06	 1.971E+05	-8.645E+06	-1.123E+06	-9.679E+06	-1.524E+05	-1.626E+06	-2.799E+05	 1.617E+07	 1.872E+06	-1.047E+07	-1.024E+05	-6.337E+06	-7.956E+03	 8.735E+04	-3.380E+08	 5.705E+04	 1.504E+07
    0.0900	 4.228E-05	-3.274E-08	-1.810E-05	 2.433E-06	 2.855E-03	 6.159E-07	 1.112E-01	-3.817E-06	-6.451E-03	 3.012E-05	 1.210E-01	-2.903E-05	 0.000E+00	 1.920E+06	 7.862E+02	 1.757E+06	 7.570E+03	-2.894E+07	-9.581E+03	-1.414E+06	-4.385E+06	 2.408E+04	 3.373E+04	 5.425E+05	 7.690E+04	 7.555E+03	 2.381E+06	-1.337E+05	 1.026E+05	-4.206E+05	-1.945E+05	-1.118E+04	-2.304E+06	 1.322E+05	-1.642E+06	 2.222E+05	-8.909E+06	-1.199E+06	-1.025E+07	-1.782E+05	-1.658E+06	-2.420E+05	 1.512E+07	 1.702E+06	-1.082E+07	-1.076E+05	-6.592E+06	-7.233E+03	 8.973E+04	-3.304E+08	 5.086E+04	 1.242E+07
    0.1000	 4.804E-05	-2.301E-08	-1.239E-05	 1.681E-06	 3.295E-03	 4.343E-07	 1.056E-01	-4.201E-06	-4.856E-03	 3.200E-05	 1.146E-01	-4.460E-05	 0.000E+00	 2.078E+06	 8.962E+02	 1.979E+06	 5.275E+03	-3.329E+07	-4.393E+03	-6.721E+05	-3.601E+06	 2.460E+04	 3.832E+04	 5.808E+05	 8.432E+04	-2.720E+04	 2.436E+06	-1.217E+05	 6.623E+04	-3.615E+05	-1.851E+05	 2.848E+04	-2.266E+06	 9.730E+04	-1.659E+06	 2.345E+05	-9.226E+06	-1.252E+06	-1.039E+07	-2.057E+05	-1.642E+06	-2.179E+05	 1.385E+07	 1.540E+06	-1.073E+07	-1.237E+05	-6.596E+06	-7.264E+03	 9.062E+04	-3.190E+08	 4.425E+04	 9.237E+06
    0.1100	-7.371E-07	-3.757E-08	-1.060E-05	 2.866E-06	-1.760E-04	 2.269E-07	 9.954E-02	-4.350E-06	-3.241E-03	 3.266E-05	 1.057E-01	-6.308E-05	 0.000E+00	 1.957E+06	 1.206E+03	 2.239E+06	 2.306E+04	-3.268E+07	 9.695E+02	-1.817E+05	-2.568E+06	 2.800E+04	 3.078E+04	 5.480E+05	 8.930E+04	-6.877E+04	 2.354E+06	-1.021E+05	-6.202E+03	-3.745E+05	-1.578E+05	 7.584E+04	-2.225E+06	 5.241E+04	-1.589E+06	 2.274E+05	-9.418E+06	-1.250E+06	-1.002E+07	-2.305E+05	-1.577E+06	-2.113E+05	 1.251E+07	 1.412E+06	-1.021E+07	-1.530E+05	-6.326E+06	-8.066E+03	 9.121E+04	-3.035E+08	 3.917E+04	 6.172E+06
    0.1200	-2.960E-05	-3.388E-08	-8.772E-06	 2.645E-06	-2.225E-03	-1.308E-07	 9.314E-02	-4.243E-06	-1.927E-03	 3.121E-05	 9.712E-02	-8.212E-05	 0.000E+00	 1.782E+06	 1.724E+03	 2.485E+06	 5.096E+04	-2.916E+07	 5.498E+03	 1.774E+05	-1.728E+06	 3.185E+04	 8.894E+03	 4.456E+05	 8.890E+04	-1.048E+05	 2.153E+06	-7.894E+04	-1.031E+05	-4.508E+05	-1.177E+05	 1.177E+05	-2.190E+06	 7.899E+03	-1.441E+06	 2.012E+05	-9.357E+06	-1.178E+06	-9.193E+06	-2.468E+05	-1.470E+06	-2.205E+05	 1.127E+07	 1.337E+06	-9.310E+06	-1.935E+05	-5.816E+06	-9.258E+03	 9.242E+04	-2.845E+08	 3.669E+04	 3.824E+06
    0.1300	-9.513E-06	 2.975E-09	-5.588E-06	-1.695E-07	-7.726E-04	-6.172E-07	 8.648E-02	-3.924E-06	-1.158E-03	 2.775E-05	 9.056E-02	-9.873E-05	 0.000E+00	 1.649E+06	 2.256E+03	 2.675E+06	 7.420E+04	-2.449E+07	 8.368E+03	 4.610E+05	-1.371E+06	 3.350E+04	-2.650E+04	 2.934E+05	 8.205E+04	-1.217E+05	 1.873E+06	-5.775E+04	-2.041E+05	-5.593E+05	-7.515E+04	 1.397E+05	-2.147E+06	-2.489E+04	-1.243E+06	 1.607E+05	-8.952E+06	-1.039E+06	-8.053E+06	-2.507E+05	-1.336E+06	-2.377E+05	 1.025E+07	 1.309E+06	-8.203E+06	-2.412E+05	-5.150E+06	-1.028E+04	 9.418E+04	-2.628E+08	 3.694E+04	 2.592E+06
    0.1400	 2.026E-05	 3.868E-08	-3.873E-06	-2.913E-06	 1.365E-03	-9.981E-07	 7.955E-02	-3.512E-06	-1.053E-03	 2.425E-05	 8.487E-02	-1.100E-04	 0.000E+00	 1.489E+06	 2.460E+03	 2.776E+06	 8.065E+04	-1.986E+07	 9.024E+03	 5.029E+05	-1.437E+06	 3.126E+04	-7.063E+04	 1.220E+05	 7.088E+04	-1.096E+05	 1.556E+06	-4.353E+04	-2.848E+05	-6.561E+05	-4.364E+04	 1.314E+05	-2.065E+06	-3.678E+04	-1.035E+06	 1.131E+05	-8.146E+06	-8.468E+05	-6.835E+06	-2.423E+05	-1.193E+06	-2.516E+05	 9.458E+06	 1.307E+06	-7.099E+06	-2.913E+05	-4.450E+06	-1.064E+04	 9.532E+04	-2.391E+08	 3.933E+04	 2.622E+06
    0.1500	 2.069E-05	 3.744E-08	-6.015E-06	-2.799E-06	 1.391E-03	-1.057E-06	 7.230E-02	-3.115E-06	-1.593E-03	 2.265E-05	 7.828E-02	-1.140E-04	 0.000E+00	 1.249E+06	 2.113E+03	 2.774E+06	 6.595E+04	-1.648E+07	 7.361E+03	 1.489E+05	-1.730E+06	 2.469E+04	-1.175E+05	-3.413E+04	 5.819E+04	-6.590E+04	 1.242E+06	-3.871E+04	-3.258E+05	-7.016E+05	-3.358E+04	 8.976E+04	-1.909E+06	-2.346E+04	-8.560E+05	 6.595E+04	-6.948E+06	-6.294E+05	-5.751E+06	-2.244E+05	-1.057E+06	-2.525E+05	 8.857E+06	 1.298E+06	-6.172E+06	-3.369E+05	-3.818E+06	-1.014E+04	 9.426E+04	-2.135E+08	 4.289E+04	 3.814E+06
    0.1600	 1.981E-06	 4.498E-09	-1.078E-05	-2.411E-07	 3.931E-05	-7.964E-07	 6.474E-02	-2.749E-06	-2.637E-03	 2.282E-05	 7.071E-02	-1.100E-04	 0.000E+00	 9.932E+05	 1.292E+03	 2.671E+06	 3.462E+04	-1.525E+07	 3.796E+03	-5.188E+05	-2.168E+06	 1.439E+04	-1.627E+05	-1.425E+05	 4.461E+04	 3.144E+03	 9.700E+05	-4.206E+04	-3.200E+05	-6.761E+05	-4.676E+04	 2.128E+04	-1.671E+06	 1.299E+04	-7.216E+05	 2.702E+04	-5.452E+06	-4.201E+05	-4.893E+06	-1.999E+05	-9.313E+05	-2.369E+05	 8.388E+06	 1.257E+06	-5.474E+06	-3.689E+05	-3.299E+06	-8.917E+03	 8.962E+04	-1.868E+08	 4.671E+04	 5.868E+06
    0.1700	-3.128E-06	-2.715E-08	-1.522E-05	 2.188E-06	-3.398E-04	-3.875E-07	 5.693E-02	-2.346E-06	-3.958E-03	 2.284E-05	 6.320E-02	-9.930E-05	 0.000E+00	 8.069E+05	 2.779E+02	 2.487E+06	-2.653E+03	-1.582E+07	-8.881E+02	-1.258E+06	-2.742E+06	 1.787E+03	-2.034E+05	-1.821E+05	 2.900E+04	 8.325E+04	 7.612E+05	-4.931E+04	-2.746E+05	-5.836E+05	-7.612E+04	-5.936E+04	-1.366E+06	 6.443E+04	-6.275E+05	 1.719E+03	-3.811E+06	-2.497E+05	-4.225E+06	-1.715E+05	-8.107E+05	-2.075E+05	 7.993E+06	 1.166E+06	-4.932E+06	-3.772E+05	-2.870E+06	-7.346E+03	 8.099E+04	-1.599E+08	 5.019E+04	 8.358E+06
    0.1800	 1.236E-05	-3.661E-08	-1.807E-05	 2.870E-06	 7.597E-04	 5.606E-09	 4.888E-02	-1.832E-06	-5.289E-03	 2.093E-05	 5.603E-02	-8.412E-05	 0.000E+00	 6.817E+05	-6.555E+02	 2.257E+06	-3.385E+04	-1.643E+07	-5.805E+03	-1.890E+06	-3.353E+06	-1.105E+04	-2.356E+05	-1.510E+05	 1.090E+04	 1.557E+05	 6.121E+05	-5.525E+04	-2.063E+05	-4.465E+05	-1.097E+05	-1.331E+05	-1.027E+06	 1.187E+05	-5.534E+05	-8.698E+03	-2.188E+06	-1.354E+05	-3.629E+06	-1.420E+05	-6.847E+05	-1.710E+05	 7.597E+06	 1.026E+06	-4.412E+06	-3.548E+05	-2.470E+06	-5.890E+03	 6.876E+04	-1.335E+08	 5.315E+04	 1.081E+07
    0.1900	 2.642E-05	-2.872E-08	-2.009E-05	 2.203E-06	 1.763E-03	 3.078E-07	 4.059E-02	-1.184E-06	-6.379E-03	 1.669E-05	 4.828E-02	-6.759E-05	 0.000E+00	 5.330E+05	-1.359E+03	 2.024E+06	-5.036E+04	-1.501E+07	-1.013E+04	-2.378E+06	-3.796E+06	-2.197E+04	-2.540E+05	-6.745E+04	-8.094E+03	 2.024E+05	 4.940E+05	-5.591E+04	-1.344E+05	-2.954E+05	-1.353E+05	-1.816E+05	-6.891E+05	 1.629E+05	-4.740E+05	-7.444E+03	-7.177E+05	-7.592E+04	-2.982E+06	-1.143E+05	-5.464E+05	-1.344E+05	 7.115E+06	 8.467E+05	-3.787E+06	-2.994E+05	-2.034E+06	-4.896E+03	 5.409E+04	-1.075E+08	 5.567E+04	 1.279E+07
    0.2000	 2.218E-05	-1.552E-08	-2.193E-05	 1.147E-06	 1.461E-03	 4.844E-07	 3.205E-02	-4.338E-07	-7.034E-03	 1.078E-05	 3.910E-02	-5.266E-05	 0.000E+00	 3.086E+05	-1.792E+03	 1.835E+06	-5.022E+04	-1.055E+07	-1.316E+04	-2.725E+06	-3.902E+06	-2.954E+04	-2.522E+05	 3.639E+04	-2.502E+04	 2.102E+05	 3.703E+05	-4.990E+04	-7.565E+04	-1.599E+05	-1.437E+05	-1.920E+05	-3.872E+05	 1.863E+05	-3.690E+05	-5.258E+02	 5.095E+05	-5.351E+04	-2.199E+06	-9.028E+04	-3.952E+05	-1.031E+05	 6.471E+06	 6.475E+05	-2.980E+06	-2.144E+05	-1.522E+06	-4.466E+03	 3.871E+04	-8.186E+07	 5.775E+04	 1.396E+07
