
Predictions were generated on 04-Jan-2021 at 12:06:46 using OpenFAST, compiled as a 64-bit application using single precision at commit v2.3.0-1158-g4b886d48
 linked with  NWTC Subroutine Library; ElastoDyn; HydroDyn; SubDyn

Description from the FAST input file: FAST Certification Test #21: NREL 5.0 MW Baseline Offshore Turbine with OC4 Jacket Configuration

Time	TwrBsFxt	TwrBsFyt	TwrBsFzt	TwrBsMxt	TwrBsMyt	TwrBsMzt	PtfmSurge	PtfmSway	PtfmHeave	PtfmRoll	PtfmPitch	PtfmYaw	Wave1Elev	HydroFxi	HydroFyi	HydroFzi	HydroMxi	HydroMyi	HydroMzi	M1N1FKZe	M2N1FKZe	M3N1MKXe	M3N1MKYe	M3N1FKZe	M4N1MKXe	M4N1MKYe	M4N1FKZe	M5N1MKXe	M5N1MKYe	M5N1FKZe	M6N1MKXe	M6N1MKYe	M6N1FKZe	M7N1FKZe	-M8N1FKXe	-M8N1FKYe	-M8N1FKZe	-M8N1MKXe	-M8N1MKYe	-M8N1MKZe	-M9N1FKXe	-M9N1FKYe	-M9N1FKZe	-M9N1MKXe	-M9N1MKYe	-M9N1MKZe	ReactFXss	ReactFYss	ReactMXss	ReactMYss	ReactMZss	ReactFZss
(s)	(kN)	(kN)	(kN)	(kN-m)	(kN-m)	(kN-m)	(m)	(m)	(m)	(deg)	(deg)	(deg)	(m)	(N)	(N)	(N)	(N-m)	(N-m)	(N-m)	(N)	(N)	(N*m)	(N*m)	(N)	(N*m)	(N*m)	(N)	(N*m)	(N*m)	(N)	(N*m)	(N*m)	(N)	(N)	(N)	(N)	(N)	(N*m)	(N*m)	(N*m)	(N)	(N)	(N)	(N*m)	(N*m)	(N*m)	(N)	(N)	(Nm)	(Nm)	(Nm)	(N)
    0.0000	 2.683E-04	 1.674E-06	 1.635E-05	-1.309E-04	 1.906E-02	-7.098E-06	 1.390E-01	 0.000E+00	 0.000E+00	 0.000E+00	 1.800E-01	 0.000E+00	 0.000E+00	 5.789E+04	 2.724E+04	 3.093E+06	 8.725E+05	-1.647E+06	-1.985E+03	 3.585E+06	-3.585E+06	 7.931E+04	-3.513E+04	 5.513E+05	 9.644E+04	-2.394E+02	 1.558E+06	-7.931E+04	-3.513E+04	-5.513E+05	-9.644E+04	-2.394E+02	-1.558E+06	-0.000E+00	-1.174E+06	 2.567E+05	-1.320E+07	-1.595E+06	-7.281E+06	-1.492E+05	-1.174E+06	-2.567E+05	 1.320E+07	 1.595E+06	-7.281E+06	-1.492E+05	-4.695E+06	 0.000E+00	 0.000E+00	-3.458E+08	 0.000E+00	 0.000E+00
    0.0100	 1.125E-04	-3.163E-07	 4.464E-06	 2.473E-05	 7.889E-03	 1.345E-06	 1.384E-01	-1.357E-06	-4.509E-04	 3.811E-05	 1.729E-01	-5.695E-08	 0.000E+00	-3.590E+05	 6.034E+03	 2.997E+06	 2.137E+05	 4.088E+06	-5.887E+02	 2.723E+06	-3.139E+06	 7.996E+04	-3.532E+04	 5.257E+05	 9.787E+04	-1.345E+03	 1.528E+06	-7.857E+04	-3.690E+04	-5.745E+05	-9.644E+04	 2.551E+02	-1.577E+06	 2.307E+03	-1.163E+06	 2.469E+05	-1.292E+07	-1.567E+06	-7.248E+06	-1.490E+05	-1.181E+06	-2.644E+05	 1.340E+07	 1.619E+06	-7.305E+06	-1.493E+05	-4.688E+06	 2.155E+03	-2.462E+04	-3.449E+08	-9.000E+00	 9.531E+05
    0.0200	-1.350E-04	-2.259E-06	-1.629E-05	 1.766E-04	-9.868E-03	 9.589E-06	 1.369E-01	-1.857E-06	-1.706E-03	 5.374E-05	 1.599E-01	-1.449E-07	 0.000E+00	-9.166E+05	-2.406E+04	 2.733E+06	-8.066E+05	 1.339E+07	 1.780E+03	 1.028E+06	-2.619E+06	 8.109E+04	-3.534E+04	 4.595E+05	 9.945E+04	-2.935E+03	 1.479E+06	-7.709E+04	-3.898E+04	-6.388E+05	-9.537E+04	 5.559E+02	-1.656E+06	 1.059E+04	-1.139E+06	 2.218E+05	-1.221E+07	-1.487E+06	-7.176E+06	-1.460E+05	-1.206E+06	-2.871E+05	 1.401E+07	 1.692E+06	-7.394E+06	-1.466E+05	-4.691E+06	 5.315E+03	-5.371E+04	-3.438E+08	-8.000E+00	 3.592E+06
    0.0300	-1.429E-04	 3.204E-07	-2.278E-05	-2.529E-05	-1.044E-02	-1.345E-06	 1.349E-01	 2.113E-06	-3.498E-03	-4.761E-05	 1.549E-01	-2.184E-07	 0.000E+00	-6.769E+05	-1.791E+04	 2.361E+06	-7.956E+05	 1.483E+07	 1.442E+03	-5.711E+03	-3.275E+06	 8.091E+04	-3.416E+04	 3.781E+05	 9.671E+04	-1.447E+03	 1.475E+06	-7.673E+04	-3.431E+04	-7.251E+05	-9.254E+04	-1.981E+03	-1.818E+06	 2.752E+04	-1.124E+06	 1.913E+05	-1.130E+07	-1.370E+06	-7.133E+06	-1.370E+05	-1.254E+06	-3.204E+05	 1.496E+07	 1.810E+06	-7.583E+06	-1.370E+05	-4.755E+06	 4.082E+03	-2.706E+04	-3.445E+08	 2.350E+01	 7.313E+06
    0.0400	 8.722E-05	 3.673E-06	-1.373E-05	-2.875E-04	 6.040E-03	-1.556E-05	 1.326E-01	 5.847E-06	-5.440E-03	-1.243E-04	 1.585E-01	-4.695E-07	 0.000E+00	 3.060E+05	 1.349E+04	 1.970E+06	 1.422E+05	 7.487E+06	-8.652E+02	-1.363E+05	-4.948E+06	 7.791E+04	-3.156E+04	 3.097E+05	 8.901E+04	 5.578E+03	 1.543E+06	-7.960E+04	-1.739E+04	-8.002E+05	-9.097E+04	-9.692E+03	-2.030E+06	 5.434E+04	-1.133E+06	 1.650E+05	-1.038E+07	-1.238E+06	-7.196E+06	-1.245E+05	-1.319E+06	-3.528E+05	 1.601E+07	 1.945E+06	-7.896E+06	-1.224E+05	-4.904E+06	-2.037E+03	 3.353E+04	-3.468E+08	 5.250E+01	 1.127E+07
    0.0500	 2.243E-04	 1.133E-06	-9.866E-06	-8.862E-05	 1.586E-02	-4.819E-06	 1.296E-01	 3.060E-06	-7.121E-03	-6.990E-07	 1.577E-01	-1.012E-06	 0.000E+00	 1.046E+06	 1.925E+04	 1.649E+06	 6.024E+05	 8.927E+05	-1.281E+03	-4.703E+05	-6.099E+06	 7.171E+04	-2.795E+04	 2.764E+05	 8.009E+04	 1.750E+04	 1.656E+06	-8.676E+04	 1.186E+04	-8.290E+05	-9.578E+04	-2.260E+04	-2.211E+06	 8.860E+04	-1.173E+06	 1.495E+05	-9.540E+06	-1.121E+06	-7.422E+06	-1.163E+05	-1.389E+06	-3.695E+05	 1.683E+07	 2.052E+06	-8.331E+06	-1.101E+05	-5.125E+06	-8.384E+03	 5.436E+04	-3.480E+08	 6.800E+01	 1.459E+07
    0.0600	 7.039E-05	-4.856E-06	-2.322E-05	 3.802E-04	 4.823E-03	 2.055E-05	 1.256E-01	-1.668E-06	-8.197E-03	 1.763E-04	 1.446E-01	-1.509E-06	 0.000E+00	 9.720E+05	-1.232E+04	 1.466E+06	-2.862E+04	 6.357E+05	 7.758E+02	-1.673E+06	-5.769E+06	 6.317E+04	-2.263E+04	 2.895E+05	 7.352E+04	 3.046E+04	 1.793E+06	-9.719E+04	 4.739E+04	-7.931E+05	-1.085E+05	-3.706E+04	-2.309E+06	 1.237E+05	-1.245E+06	 1.483E+05	-8.887E+06	-1.045E+06	-7.832E+06	-1.174E+05	-1.454E+06	-3.618E+05	 1.716E+07	 2.093E+06	-8.857E+06	-1.061E+05	-5.397E+06	-1.176E+04	 2.738E+04	-3.460E+08	 6.500E+01	 1.656E+07
    0.0700	-1.656E-04	-4.595E-06	-3.940E-05	 3.598E-04	-1.209E-02	 1.944E-05	 1.210E-01	 2.529E-06	-8.461E-03	 7.880E-05	 1.278E-01	-1.436E-06	 0.000E+00	 6.830E+05	-3.341E+04	 1.451E+06	-6.731E+05	 9.301E+04	 2.050E+03	-2.847E+06	-4.740E+06	 5.405E+04	-1.332E+04	 3.481E+05	 6.942E+04	 3.854E+04	 1.967E+06	-1.077E+05	 7.842E+04	-7.007E+05	-1.240E+05	-4.614E+04	-2.341E+06	 1.503E+05	-1.344E+06	 1.623E+05	-8.552E+06	-1.023E+06	-8.402E+06	-1.267E+05	-1.512E+06	-3.334E+05	 1.696E+07	 2.061E+06	-9.418E+06	-1.103E+05	-5.711E+06	-1.426E+04	 2.882E+04	-3.417E+08	 1.255E+02	 1.682E+07
    0.0800	-1.609E-04	 3.582E-06	-3.678E-05	-2.799E-04	-1.173E-02	-1.521E-05	 1.163E-01	 1.453E-05	-7.887E-03	-2.696E-04	 1.207E-01	-7.515E-07	 0.000E+00	 1.068E+06	-8.885E+03	 1.596E+06	-1.795E+05	-9.996E+06	-3.016E+01	-2.658E+06	-4.339E+06	 4.654E+04	 1.616E+03	 4.375E+05	 6.684E+04	 3.520E+04	 2.190E+06	-1.142E+05	 9.133E+04	-5.787E+05	-1.346E+05	-4.197E+04	-2.356E+06	 1.596E+05	-1.460E+06	 1.880E+05	-8.613E+06	-1.052E+06	-9.056E+06	-1.402E+05	-1.563E+06	-2.950E+05	 1.631E+07	 1.967E+06	-9.939E+06	-1.201E+05	-6.046E+06	-1.887E+04	 1.005E+05	-3.371E+08	 2.600E+02	 1.540E+07
    0.0900	 7.323E-05	 8.379E-06	-1.670E-05	-6.551E-04	 5.073E-03	-3.551E-05	 1.115E-01	 1.817E-05	-6.622E-03	-4.115E-04	 1.231E-01	 4.338E-08	 0.000E+00	 2.031E+06	 2.737E+04	 1.859E+06	 9.160E+05	-2.759E+07	-2.881E+03	-1.168E+06	-4.583E+06	 4.271E+04	 2.019E+04	 5.296E+05	 6.761E+04	 1.541E+04	 2.414E+06	-1.129E+05	 7.271E+04	-4.584E+05	-1.364E+05	-1.917E+04	-2.368E+06	 1.459E+05	-1.566E+06	 2.163E+05	-8.971E+06	-1.118E+06	-9.671E+06	-1.576E+05	-1.602E+06	-2.567E+05	 1.531E+07	 1.822E+06	-1.033E+07	-1.370E+05	-6.338E+06	-2.362E+04	 1.745E+05	-3.314E+08	 4.205E+02	 1.268E+07
    0.1000	 2.099E-04	 1.405E-06	-2.035E-06	-1.093E-04	 1.490E-02	-5.953E-06	 1.062E-01	 3.976E-06	-4.952E-03	-8.448E-05	 1.219E-01	 5.775E-07	 0.000E+00	 2.601E+06	 2.046E+04	 2.178E+06	 1.090E+06	-4.060E+07	-2.598E+03	 1.653E+05	-4.257E+06	 4.370E+04	 3.624E+04	 5.894E+05	 7.537E+04	-2.142E+04	 2.550E+06	-1.021E+05	 1.461E+04	-3.676E+05	-1.300E+05	 2.211E+04	-2.347E+06	 1.093E+05	-1.632E+06	 2.352E+05	-9.375E+06	-1.195E+06	-1.010E+07	-1.812E+05	-1.617E+06	-2.244E+05	 1.403E+07	 1.642E+06	-1.049E+07	-1.650E+05	-6.498E+06	-2.296E+04	 1.675E+05	-3.220E+08	 5.520E+02	 9.303E+06
    0.1100	 6.223E-05	-8.592E-06	-6.439E-06	 6.727E-04	 4.335E-03	 3.641E-05	 1.000E-01	-1.456E-05	-3.231E-03	 3.176E-04	 1.092E-01	 1.047E-06	 0.000E+00	 2.251E+06	-2.172E+04	 2.486E+06	 1.356E+04	-4.182E+07	-1.555E+02	 3.308E+05	-2.782E+06	 4.880E+04	 4.185E+04	 5.887E+05	 9.036E+04	-6.900E+04	 2.536E+06	-8.247E+04	-7.978E+04	-3.292E+05	-1.177E+05	 7.481E+04	-2.278E+06	 5.710E+04	-1.633E+06	 2.359E+05	-9.588E+06	-1.250E+06	-1.023E+07	-2.103E+05	-1.598E+06	-2.035E+05	 1.259E+07	 1.450E+06	-1.037E+07	-2.046E+05	-6.463E+06	-1.514E+04	 1.114E+05	-3.073E+08	 6.625E+02	 6.002E+06
    0.1200	-1.607E-04	-6.587E-06	-1.719E-05	 5.154E-04	-1.163E-02	 2.797E-05	 9.344E-02	-1.753E-05	-1.807E-03	 2.382E-04	 9.313E-02	 1.733E-06	 0.000E+00	 1.607E+06	-3.611E+04	 2.724E+06	-9.516E+05	-3.717E+07	 6.706E+02	-7.030E+04	-1.202E+06	 5.529E+04	 3.015E+04	 5.176E+05	 1.067E+05	-1.144E+05	 2.385E+06	-5.746E+04	-1.942E+05	-3.564E+05	-1.008E+05	 1.260E+05	-2.194E+06	 3.068E+03	-1.566E+06	 2.161E+05	-9.509E+06	-1.250E+06	-9.985E+06	-2.375E+05	-1.547E+06	-1.993E+05	 1.124E+07	 1.289E+06	-9.957E+06	-2.477E+05	-6.225E+06	-5.339E+03	 1.177E+05	-2.888E+08	 7.605E+02	 3.440E+06
    0.1300	-1.487E-04	 6.057E-06	-1.425E-05	-4.746E-04	-1.075E-02	-2.557E-05	 8.682E-02	-7.588E-06	-9.489E-04	-2.061E-04	 8.633E-02	 2.257E-06	 0.000E+00	 1.559E+06	 2.528E+03	 2.853E+06	-6.767E+05	-3.628E+07	-1.220E+03	 1.265E+05	-8.936E+05	 5.939E+04	-3.274E+03	 3.874E+05	 1.166E+05	-1.419E+05	 2.147E+06	-3.242E+04	-3.031E+05	-4.417E+05	-8.145E+04	 1.597E+05	-2.131E+06	-3.632E+04	-1.440E+06	 1.798E+05	-9.119E+06	-1.171E+06	-9.359E+06	-2.540E+05	-1.468E+06	-2.130E+05	 1.018E+07	 1.192E+06	-9.301E+06	-2.833E+05	-5.815E+06	-1.836E+02	 2.134E+05	-2.688E+08	 8.010E+02	 2.076E+06
    0.1400	 7.876E-05	 1.121E-05	 8.218E-07	-8.778E-04	 5.560E-03	-4.739E-05	 8.017E-02	-7.815E-06	-7.965E-04	-3.074E-04	 8.826E-02	 1.784E-06	 0.000E+00	 2.029E+06	 4.056E+04	 2.859E+06	 1.669E+05	-3.884E+07	-2.440E+03	 8.930E+05	-1.781E+06	 5.790E+04	-5.950E+04	 2.238E+05	 1.161E+05	-1.383E+05	 1.846E+06	-1.319E+04	-3.798E+05	-5.533E+05	-6.560E+04	 1.617E+05	-2.075E+06	-4.768E+04	-1.272E+06	 1.331E+05	-8.376E+06	-1.007E+06	-8.406E+06	-2.565E+05	-1.362E+06	-2.360E+05	 9.448E+06	 1.165E+06	-8.463E+06	-3.041E+05	-5.267E+06	-1.059E+03	 2.927E+05	-2.476E+08	 6.700E+02	 2.094E+06
    0.1500	 2.031E-04	-3.771E-07	 6.917E-06	 2.870E-05	 1.448E-02	 1.603E-06	 7.308E-02	-2.734E-05	-1.341E-03	 2.185E-04	 8.613E-02	 5.445E-08	 0.000E+00	 2.109E+06	 2.224E+04	 2.751E+06	 1.726E+05	-3.575E+07	-5.543E+02	 1.001E+06	-2.518E+06	 4.961E+04	-1.344E+05	 5.792E+04	 1.063E+05	-9.763E+04	 1.482E+06	-4.033E+03	-4.034E+05	-6.474E+05	-6.014E+04	 1.243E+05	-1.960E+06	-2.622E+04	-1.074E+06	 8.251E+04	-7.222E+06	-7.784E+05	-7.216E+06	-2.468E+05	-1.226E+06	-2.542E+05	 8.937E+06	 1.179E+06	-7.507E+06	-3.085E+05	-4.602E+06	-4.827E+03	 2.691E+05	-2.234E+08	 3.235E+02	 3.391E+06
    0.1600	 5.184E-05	-1.360E-05	-6.869E-06	 1.063E-03	 3.620E-03	 5.751E-05	 6.534E-02	-4.361E-05	-2.437E-03	 7.192E-04	 7.275E-02	-2.088E-06	 0.000E+00	 1.346E+06	-2.517E+04	 2.557E+06	-6.617E+05	-2.297E+07	 2.062E+03	-2.398E+05	-2.358E+06	 3.560E+04	-2.167E+05	-7.919E+04	 8.983E+04	-2.359E+04	 1.081E+06	-6.077E+03	-3.639E+05	-6.879E+05	-6.709E+04	 4.980E+04	-1.748E+06	 2.219E+04	-8.665E+05	 3.525E+04	-5.693E+06	-5.195E+05	-5.907E+06	-2.265E+05	-1.063E+06	-2.568E+05	 8.520E+06	 1.198E+06	-6.489E+06	-2.943E+05	-3.859E+06	-1.004E+04	 2.122E+05	-1.953E+08	-1.550E+02	 5.630E+06
    0.1700	-1.640E-04	-8.825E-06	-2.574E-05	 6.899E-04	-1.186E-02	 3.730E-05	 5.727E-02	-3.126E-05	-3.843E-03	 4.539E-04	 5.651E-02	-3.488E-06	 0.000E+00	 3.907E+05	-2.672E+04	 2.313E+06	-8.681E+05	-8.499E+06	 2.475E+03	-1.918E+06	-2.087E+06	 1.861E+04	-2.888E+05	-1.611E+05	 6.726E+04	 7.072E+04	 7.096E+05	-1.704E+04	-2.645E+05	-6.587E+05	-8.089E+04	-4.834E+04	-1.459E+06	 8.336E+04	-6.684E+05	-1.014E+03	-3.977E+06	-2.704E+05	-4.596E+06	-1.934E+05	-8.828E+05	-2.415E+05	 8.151E+06	 1.195E+06	-5.450E+06	-2.568E+05	-3.102E+06	-1.902E+04	 2.548E+05	-1.656E+08	-6.305E+02	 8.327E+06
    0.1800	-1.456E-04	 9.029E-06	-2.877E-05	-7.068E-04	-1.055E-02	-3.829E-05	 4.930E-02	 3.808E-08	-5.270E-03	-3.078E-04	 4.963E-02	-3.839E-06	 0.000E+00	 1.057E+05	 2.970E+04	 2.062E+06	 3.306E+05	-2.431E+06	 8.601E+02	-2.630E+06	-2.770E+06	 2.234E+03	-3.315E+05	-1.728E+05	 3.984E+04	 1.645E+05	 4.332E+05	-3.229E+04	-1.220E+05	-5.606E+05	-9.249E+04	-1.482E+05	-1.144E+06	 1.395E+05	-4.940E+05	-2.131E+04	-2.309E+06	-6.700E+04	-3.365E+06	-1.467E+05	-6.983E+05	-2.120E+05	 7.799E+06	 1.148E+06	-4.405E+06	-1.931E+05	-2.385E+06	-3.267E+04	 3.924E+05	-1.368E+08	-1.004E+03	 1.095E+07
    0.1900	 7.940E-05	 1.515E-05	-1.696E-05	-1.185E-03	 5.566E-03	-6.417E-05	 4.144E-02	 1.474E-05	-6.445E-03	-5.623E-04	 5.121E-02	-3.740E-06	 0.000E+00	 3.902E+05	 6.950E+04	 1.847E+06	 1.761E+06	-3.812E+06	-6.894E+01	-2.238E+06	-4.095E+06	-9.899E+03	-3.299E+05	-1.190E+05	 1.244E+04	 2.338E+05	 2.514E+05	-4.639E+04	 3.555E+04	-4.064E+05	-9.532E+04	-2.250E+05	-8.151E+05	 1.740E+05	-3.420E+05	-2.647E+04	-8.204E+05	 6.689E+04	-2.244E+06	-9.164E+04	-5.142E+05	-1.719E+05	 7.346E+06	 1.038E+06	-3.337E+06	-1.085E+05	-1.713E+06	-4.563E+04	 4.658E+05	-1.092E+08	-1.222E+03	 1.303E+07
    0.2000	 1.989E-04	-2.976E-07	-1.062E-05	 2.403E-05	 1.413E-02	 1.192E-06	 3.325E-02	-5.733E-07	-7.159E-03	 3.501E-05	 4.857E-02	-3.637E-06	 0.000E+00	 3.477E+05	 3.575E+04	 1.703E+06	 1.822E+06	-2.377E+06	 4.411E+02	-1.902E+06	-4.675E+06	-1.512E+04	-2.777E+05	-2.541E+04	-7.961E+03	 2.573E+05	 1.080E+05	-5.458E+04	 1.759E+05	-2.209E+05	-8.687E+04	-2.572E+05	-4.551E+05	 1.756E+05	-1.984E+05	-2.249E+04	 4.737E+05	 1.249E+05	-1.209E+06	-3.789E+04	-3.270E+05	-1.237E+05	 6.629E+06	 8.509E+05	-2.207E+06	-1.588E+04	-1.051E+06	-4.956E+04	 3.734E+05	-8.070E+07	-1.208E+03	 1.420E+07
